 Entering Gaussian System, Link 0=g09
 Input=best.com
 Output=best.log
 Initial command:
 /opt/g09/g09/l1.exe "/opt/g09/scratch/Gau-29745.inp" -scrdir="/opt/g09/scratch/"
 Entering Link 1 = /opt/g09/g09/l1.exe PID=     29746.
  
 Copyright (c) 1988,1990,1992,1993,1995,1998,2003,2009,2013,
            Gaussian, Inc.  All Rights Reserved.
  
 This is part of the Gaussian(R) 09 program.  It is based on
 the Gaussian(R) 03 system (copyright 2003, Gaussian, Inc.),
 the Gaussian(R) 98 system (copyright 1998, Gaussian, Inc.),
 the Gaussian(R) 94 system (copyright 1995, Gaussian, Inc.),
 the Gaussian 92(TM) system (copyright 1992, Gaussian, Inc.),
 the Gaussian 90(TM) system (copyright 1990, Gaussian, Inc.),
 the Gaussian 88(TM) system (copyright 1988, Gaussian, Inc.),
 the Gaussian 86(TM) system (copyright 1986, Carnegie Mellon
 University), and the Gaussian 82(TM) system (copyright 1983,
 Carnegie Mellon University). Gaussian is a federally registered
 trademark of Gaussian, Inc.
  
 This software contains proprietary and confidential information,
 including trade secrets, belonging to Gaussian, Inc.
  
 This software is provided under written license and may be
 used, copied, transmitted, or stored only in accord with that
 written license.
  
 The following legend is applicable only to US Government
 contracts under FAR:
  
                    RESTRICTED RIGHTS LEGEND
  
 Use, reproduction and disclosure by the US Government is
 subject to restrictions as set forth in subparagraphs (a)
 and (c) of the Commercial Computer Software - Restricted
 Rights clause in FAR 52.227-19.
  
 Gaussian, Inc.
 340 Quinnipiac St., Bldg. 40, Wallingford CT 06492
  
  
 ---------------------------------------------------------------
 Warning -- This program may not be used in any manner that
 competes with the business of Gaussian, Inc. or will provide
 assistance to any competitor of Gaussian, Inc.  The licensee
 of this program is prohibited from giving any competitor of
 Gaussian, Inc. access to this program.  By using this program,
 the user acknowledges that Gaussian, Inc. is engaged in the
 business of creating and licensing software in the field of
 computational chemistry and represents and warrants to the
 licensee that it is not a competitor of Gaussian, Inc. and that
 it will not use this program in any manner prohibited above.
 ---------------------------------------------------------------
  

 Cite this work as:
 Gaussian 09, Revision D.01,
 M. J. Frisch, G. W. Trucks, H. B. Schlegel, G. E. Scuseria, 
 M. A. Robb, J. R. Cheeseman, G. Scalmani, V. Barone, B. Mennucci, 
 G. A. Petersson, H. Nakatsuji, M. Caricato, X. Li, H. P. Hratchian, 
 A. F. Izmaylov, J. Bloino, G. Zheng, J. L. Sonnenberg, M. Hada, 
 M. Ehara, K. Toyota, R. Fukuda, J. Hasegawa, M. Ishida, T. Nakajima, 
 Y. Honda, O. Kitao, H. Nakai, T. Vreven, J. A. Montgomery, Jr., 
 J. E. Peralta, F. Ogliaro, M. Bearpark, J. J. Heyd, E. Brothers, 
 K. N. Kudin, V. N. Staroverov, T. Keith, R. Kobayashi, J. Normand, 
 K. Raghavachari, A. Rendell, J. C. Burant, S. S. Iyengar, J. Tomasi, 
 M. Cossi, N. Rega, J. M. Millam, M. Klene, J. E. Knox, J. B. Cross, 
 V. Bakken, C. Adamo, J. Jaramillo, R. Gomperts, R. E. Stratmann, 
 O. Yazyev, A. J. Austin, R. Cammi, C. Pomelli, J. W. Ochterski, 
 R. L. Martin, K. Morokuma, V. G. Zakrzewski, G. A. Voth, 
 P. Salvador, J. J. Dannenberg, S. Dapprich, A. D. Daniels, 
 O. Farkas, J. B. Foresman, J. V. Ortiz, J. Cioslowski, 
 and D. J. Fox, Gaussian, Inc., Wallingford CT, 2013.
 
 ******************************************
 Gaussian 09:  ES64L-G09RevD.01 24-Apr-2013
                20-Mar-2016 
 ******************************************
 -----------------------
 #P AM1(Input,Print) opt
 -----------------------
 1/14=-1,18=20,19=15,26=1,38=1/1,3;
 2/9=110,12=2,17=6,18=5,40=1/2;
 3/5=2,16=1,25=1,41=700000,71=1,135=100,136=1/1,2,3;
 4/35=1/1;
 5/5=2,35=1,38=5/2;
 6/7=2,8=2,9=2,10=2,28=1/1;
 7//1,2,3,16;
 1/14=-1,18=20,19=15,26=1/3(2);
 2/9=110/2;
 99//99;
 2/9=110/2;
 3/5=2,16=1,25=1,41=700000,71=1,135=20,136=1/1,2,3;
 4/5=5,16=3,35=1/1;
 5/5=2,35=1,38=5/2;
 7//1,2,3,16;
 1/14=-1,18=20,19=15,26=1/3(-5);
 2/9=110/2;
 6/7=2,8=2,9=2,10=2,19=2,28=1/1;
 99/9=1/99;
 Leave Link    1 at Sun Mar 20 13:12:31 2016, MaxMem=           0 cpu:         0.0
 (Enter /opt/g09/g09/l101.exe)
 ----
 best
 ----
 Symbolic Z-matrix:
 Charge =  0 Multiplicity = 1
 6                     1.0239   -0.68989  -0.03024 
 6                    -0.33089  -1.08142  -0.06026 
 8                    -1.16657   0.00805  -0.01007 
 6                    -0.34042   1.09924   0.03897 
 6                     0.94919   0.70541   0.01423 
 1                     1.82501   1.38085   0.01124 
 1                    -0.83654   2.05973   0.08404 
 1                    -0.80422  -2.01293  -0.03229 
 1                     1.80399  -1.3683    0.00212 
 
 NAtoms=      9 NQM=        9 NQMF=       0 NMMI=      0 NMMIF=      0
                NMic=       0 NMicF=      0.
                    Isotopes and Nuclear Properties:
 (Nuclear quadrupole moments (NQMom) in fm**2, nuclear magnetic moments (NMagM)
  in nuclear magnetons)

  Atom         1           2           3           4           5           6           7           8           9
 IAtWgt=          12          12          16          12          12           1           1           1           1
 AtmWgt=  12.0000000  12.0000000  15.9949146  12.0000000  12.0000000   1.0078250   1.0078250   1.0078250   1.0078250
 NucSpn=           0           0           0           0           0           1           1           1           1
 AtZEff=   0.0000000   0.0000000   0.0000000   0.0000000   0.0000000   0.0000000   0.0000000   0.0000000   0.0000000
 NQMom=    0.0000000   0.0000000   0.0000000   0.0000000   0.0000000   0.0000000   0.0000000   0.0000000   0.0000000
 NMagM=    0.0000000   0.0000000   0.0000000   0.0000000   0.0000000   2.7928460   2.7928460   2.7928460   2.7928460
 AtZNuc=   6.0000000   6.0000000   8.0000000   6.0000000   6.0000000   1.0000000   1.0000000   1.0000000   1.0000000
 Leave Link  101 at Sun Mar 20 13:12:31 2016, MaxMem=    33554432 cpu:         0.0
 (Enter /opt/g09/g09/l103.exe)

 GradGradGradGradGradGradGradGradGradGradGradGradGradGradGradGradGradGrad
 Berny optimization.
 Initialization pass.
                           ----------------------------
                           !    Initial Parameters    !
                           ! (Angstroms and Degrees)  !
 --------------------------                            --------------------------
 ! Name  Definition              Value          Derivative Info.                !
 --------------------------------------------------------------------------------
 ! R1    R(1,2)                  1.4105         estimate D2E/DX2                !
 ! R2    R(1,5)                  1.398          estimate D2E/DX2                !
 ! R3    R(1,9)                  1.0343         estimate D2E/DX2                !
 ! R4    R(2,3)                  1.374          estimate D2E/DX2                !
 ! R5    R(2,8)                  1.0452         estimate D2E/DX2                !
 ! R6    R(3,4)                  1.3695         estimate D2E/DX2                !
 ! R7    R(4,5)                  1.3486         estimate D2E/DX2                !
 ! R8    R(4,7)                  1.082          estimate D2E/DX2                !
 ! R9    R(5,6)                  1.106          estimate D2E/DX2                !
 ! A1    A(2,1,5)              103.0841         estimate D2E/DX2                !
 ! A2    A(2,1,9)              122.8879         estimate D2E/DX2                !
 ! A3    A(5,1,9)              133.9425         estimate D2E/DX2                !
 ! A4    A(1,2,3)              111.3034         estimate D2E/DX2                !
 ! A5    A(1,2,8)              132.9792         estimate D2E/DX2                !
 ! A6    A(3,2,8)              115.4835         estimate D2E/DX2                !
 ! A7    A(2,3,4)              105.4371         estimate D2E/DX2                !
 ! A8    A(3,4,5)              110.0907         estimate D2E/DX2                !
 ! A9    A(3,4,7)              115.606          estimate D2E/DX2                !
 ! A10   A(5,4,7)              134.3029         estimate D2E/DX2                !
 ! A11   A(1,5,4)              110.0684         estimate D2E/DX2                !
 ! A12   A(1,5,6)              124.5488         estimate D2E/DX2                !
 ! A13   A(4,5,6)              125.3747         estimate D2E/DX2                !
 ! D1    D(5,1,2,3)             -1.1354         estimate D2E/DX2                !
 ! D2    D(5,1,2,8)           -175.1774         estimate D2E/DX2                !
 ! D3    D(9,1,2,3)            175.9297         estimate D2E/DX2                !
 ! D4    D(9,1,2,8)              1.8877         estimate D2E/DX2                !
 ! D5    D(2,1,5,4)              1.2825         estimate D2E/DX2                !
 ! D6    D(2,1,5,6)           -177.7278         estimate D2E/DX2                !
 ! D7    D(9,1,5,4)           -175.2943         estimate D2E/DX2                !
 ! D8    D(9,1,5,6)              5.6955         estimate D2E/DX2                !
 ! D9    D(1,2,3,4)              0.5751         estimate D2E/DX2                !
 ! D10   D(8,2,3,4)            175.7494         estimate D2E/DX2                !
 ! D11   D(2,3,4,5)              0.2654         estimate D2E/DX2                !
 ! D12   D(2,3,4,7)           -179.9412         estimate D2E/DX2                !
 ! D13   D(3,4,5,1)             -1.0138         estimate D2E/DX2                !
 ! D14   D(3,4,5,6)            177.9864         estimate D2E/DX2                !
 ! D15   D(7,4,5,1)            179.2465         estimate D2E/DX2                !
 ! D16   D(7,4,5,6)             -1.7532         estimate D2E/DX2                !
 --------------------------------------------------------------------------------
 Trust Radius=3.00D-01 FncErr=1.00D-07 GrdErr=1.00D-07
 Number of steps in this run=     48 maximum allowed number of steps=    100.
 GradGradGradGradGradGradGradGradGradGradGradGradGradGradGradGradGradGrad

 Leave Link  103 at Sun Mar 20 13:12:31 2016, MaxMem=    33554432 cpu:         0.0
 (Enter /opt/g09/g09/l202.exe)
                          Input orientation:                          
 ---------------------------------------------------------------------
 Center     Atomic      Atomic             Coordinates (Angstroms)
 Number     Number       Type             X           Y           Z
 ---------------------------------------------------------------------
      1          6           0        1.023898   -0.689893   -0.030238
      2          6           0       -0.330893   -1.081417   -0.060258
      3          8           0       -1.166573    0.008050   -0.010070
      4          6           0       -0.340417    1.099240    0.038972
      5          6           0        0.949190    0.705409    0.014228
      6          1           0        1.825006    1.380846    0.011243
      7          1           0       -0.836537    2.059733    0.084044
      8          1           0       -0.804216   -2.012929   -0.032287
      9          1           0        1.803988   -1.368304    0.002124
 ---------------------------------------------------------------------
                    Distance matrix (angstroms):
                    1          2          3          4          5
     1  C    0.000000
     2  C    1.410550   0.000000
     3  O    2.299064   1.373979   0.000000
     4  C    2.251031   2.182934   1.369538   0.000000
     5  C    1.398008   2.199297   2.227858   1.348629   0.000000
     6  H    2.220688   3.273492   3.291590   2.183833   1.106019
     7  H    3.321855   3.184858   2.080189   1.081995   2.242295
     8  H    2.256641   1.045242   2.053327   3.147345   3.235113
     9  H    1.034325   2.154974   3.273947   3.269343   2.243014
                    6          7          8          9
     6  H    0.000000
     7  H    2.747726   0.000000
     8  H    4.293298   4.074451   0.000000
     9  H    2.749245   4.327877   2.686904   0.000000
 Stoichiometry    C4H4O
 Framework group  C1[X(C4H4O)]
 Deg. of freedom    21
 Full point group                 C1      NOp   1
 Largest Abelian subgroup         C1      NOp   1
 Largest concise Abelian subgroup C1      NOp   1
                         Standard orientation:                         
 ---------------------------------------------------------------------
 Center     Atomic      Atomic             Coordinates (Angstroms)
 Number     Number       Type             X           Y           Z
 ---------------------------------------------------------------------
      1          6           0        1.146981    0.442089   -0.000876
      2          6           0        0.708789   -0.898581   -0.016496
      3          8           0       -0.662958   -0.975591   -0.002370
      4          6           0       -1.100824    0.322013    0.009113
      5          6           0       -0.049001    1.166000   -0.003446
      6          1           0       -0.114022    2.269787   -0.029977
      7          1           0       -2.174776    0.453040    0.022184
      8          1           0        1.211200   -1.813206    0.043298
      9          1           0        2.145589    0.705974    0.053681
 ---------------------------------------------------------------------
 Rotational constants (GHZ):      9.6689761      9.0174658      4.6668036
 Leave Link  202 at Sun Mar 20 13:12:31 2016, MaxMem=    33554432 cpu:         0.0
 (Enter /opt/g09/g09/l301.exe)

 Semi-emprical parameters in input format:
 Method=8 CoreType=1 PeptideFC=0.0115023749 RIJScale=0.5498469277
 ****
 H       
 PQN=1 NValence=1 F0ss=0.4721553327 ZetaOverlap=1.0952851616 U=-0.4170812705
 Beta=-0.2268825074 CoreKO=1.0229678371 KON=0,0,0,1.1711189547 KON=1,0,1,1.0589197790
 KON=0,1,1,1.0208246310 KON=2,1,1,1.0589197790 EISol=-0.4188110042 EHeat=0.0830298228
 Alpha=1.5252601686
 GCore=0.0090141628,1.4646307669,2.2733532053
 GCore=0.0003572973,1.2851185010,3.1993476827
 GCore=-0.0012319278,0.5600570362,3.9684248791
 ****
 C       
 PQN=2,2 NValence=4 F0ss=0.4494442496 F0sp=0.4201585839 F0pp=0.3768030831 F2pp=0.1853269360
 G1sp=0.2679025821
 ZetaOverlap=1.8086650000,1.7763413239
 U=-1.9120180828,-1.4557965594
 Beta=-0.5722819218,-0.3092138665 DDN=0,1,0.8337431937 DDN=1,1,0.7663422185
 CoreKO=1.1674129280 KON=0,0,0,1.1124284736 KON=1,0,1,0.7911716224 KON=0,1,1,0.9947781247
 KON=2,1,1,0.8630220569 EISol=-4.4398989268 EHeat=0.2723305520 Alpha=1.4014062429
 DipHyp=1.6673904555
 GCore=0.0008980260,1.4001425905,2.9086362888
 GCore=0.0031649701,1.3637583984,3.4959933458
 GCore=-0.0015747380,1.4001425905,3.6057477340
 GCore=-0.0000888771,1.3812693546,5.3049303093
 ****
 O       
 PQN=2,2 NValence=6 F0ss=0.5848690267 F0sp=0.5321302318 F0pp=0.4958708974 F2pp=0.2344894845
 G1sp=0.4343770262
 ZetaOverlap=3.1092128918,2.5240390000
 U=-3.5951865036,-2.8760896690
 Beta=-1.0757546603,-1.0376781439 DDN=0,1,0.4988896000 DDN=1,1,0.4851967478
 CoreKO=0.8822957477 KON=0,0,0,0.8644959976 KON=1,0,1,0.4674744593 KON=0,1,1,0.9229149174
 KON=2,1,1,0.4733807789 EISol=-11.6164441184 EHeat=0.0949133088 Alpha=2.3576807890
 DipHyp=0.9977217969
 GCore=0.0206944368,1.3203262578,1.6023328031
 GCore=0.0056550009,1.9286482007,2.8620615714
 ****
 
 Standard basis: VSTO-6G (5D, 7F)
 Ernie: Thresh=  0.10000D-02 Tol=  0.10000D-05 Strict=F.
  NNHCO=     0 NNPyr=     0 NCTC=     0               EPep=         0.000000000
    EC=        68.018498820  ECS=         1.800873573   EG=         0.367349956
   EHC=         0.000000000  EAt=       -31.051283842  AtH=         1.516354808
 EPDDG=         0.000000000  ECC=        70.186722348 EAtT=        32.567638650
 There are    24 symmetry adapted cartesian basis functions of A   symmetry.
 There are    24 symmetry adapted basis functions of A   symmetry.
    24 basis functions,   144 primitive gaussians,    24 cartesian basis functions
    13 alpha electrons       13 beta electrons
       nuclear repulsion energy       102.7543609981 Hartrees.
 IExCor=    0 DFT=F Ex=HF Corr=None ExCW=0 ScaHFX=  1.000000
 ScaDFX=  1.000000  1.000000  1.000000  1.000000 ScalE2=  1.000000  1.000000
 IRadAn=      0 IRanWt=     -1 IRanGd=            0 ICorTp=0 IEmpDi=  4
 Integral buffers will be    131072 words long.
 Regular integral format.
 Two-electron integral symmetry is turned off.
 Leave Link  301 at Sun Mar 20 13:12:31 2016, MaxMem=    33554432 cpu:         0.0
 (Enter /opt/g09/g09/l302.exe)
 Do NDO integrals.
 NPDir=0 NMtPBC=     1 NCelOv=     1 NCel=       1 NClECP=     1 NCelD=      1
         NCelK=      1 NCelE2=     1 NClLst=     1 CellRange=     0.0.
 One-electron integrals computed using PRISM.
 NBasis=    24 RedAO= F EigKep=  0.00D+00  NBF=    24
 NBsUse=    24 1.00D-04 EigRej=  0.00D+00 NBFU=    24
 Leave Link  302 at Sun Mar 20 13:12:31 2016, MaxMem=    33554432 cpu:         0.0
 (Enter /opt/g09/g09/l303.exe)
 DipDrv:  MaxL=1.
 Leave Link  303 at Sun Mar 20 13:12:31 2016, MaxMem=    33554432 cpu:         0.0
 (Enter /opt/g09/g09/l401.exe)
 Simple Huckel Guess.
 JPrj=0 DoOrth=F DoCkMO=F.
 Leave Link  401 at Sun Mar 20 13:12:31 2016, MaxMem=    33554432 cpu:         0.0
 (Enter /opt/g09/g09/l502.exe)
 Closed shell SCF:
 Using DIIS extrapolation, IDIIS=  1040.
 Overlap will be assumed to be unity.
 Two-electron integral symmetry not used.
 Keep J ints in memory in canonical form, NReq=888082.
 IVT=       79475 IEndB=       79475 NGot=    33554432 MDV=    33473473
 LenX=    33473473 LenY=    33472456
 Requested convergence on RMS density matrix=1.00D-08 within 128 cycles.
 Requested convergence on MAX density matrix=1.00D-06.
 Requested convergence on             energy=1.00D-06.
 No special actions if energy rises.
 FoFCou: FMM=F IPFlag=           0 FMFlag=           0 FMFlg1=           0
         NFxFlg=           0 DoJE=F BraDBF=F KetDBF=F FulRan=T
         wScrn=  0.000000 ICntrl=     600 IOpCl=  2 I1Cent=           0 NGrid=           0
         NMat0=    1 NMatS0=     54 NMatT0=    0 NMatD0=    1 NMtDS0=    0 NMtDT0=    0
 Symmetry not used in FoFCou.

 Cycle   1  Pass 1  IDiag  1:
 E= 0.395383469679786    
 DIIS: error= 6.14D-02 at cycle   1 NSaved=   1.
 NSaved= 1 IEnMin= 1 EnMin= 0.395383469679786     IErMin= 1 ErrMin= 6.14D-02
 ErrMax= 6.14D-02  0.00D+00 EMaxC= 1.00D-01 BMatC= 1.29D-01 BMatP= 1.29D-01
 IDIUse=3 WtCom= 3.86D-01 WtEn= 6.14D-01
 Coeff-Com:  0.100D+01
 Coeff-En:   0.100D+01
 Coeff:      0.100D+01
 GapD=    2.000 DampG=2.000 DampE=0.500 DampFc=1.0000 IDamp=-1.
 RMSDP=2.24D-02 MaxDP=1.59D-01              OVMax= 0.00D+00

 Cycle   2  Pass 1  IDiag  1:
 E= 0.452700289855557E-01 Delta-E=       -0.350113440694 Rises=F Damp=F
 DIIS: error= 1.83D-02 at cycle   2 NSaved=   2.
 NSaved= 2 IEnMin= 2 EnMin= 0.452700289855557E-01 IErMin= 2 ErrMin= 1.83D-02
 ErrMax= 1.83D-02  0.00D+00 EMaxC= 1.00D-01 BMatC= 1.19D-02 BMatP= 1.29D-01
 IDIUse=3 WtCom= 8.17D-01 WtEn= 1.83D-01
 Coeff-Com: -0.369D+00 0.137D+01
 Coeff-En:   0.000D+00 0.100D+01
 Coeff:     -0.301D+00 0.130D+01
 RMSDP=9.62D-03 MaxDP=7.43D-02 DE=-3.50D-01 OVMax= 0.00D+00

 Cycle   3  Pass 1  IDiag  3:
 E= 0.488127079889011E-02 Delta-E=       -0.040388758187 Rises=F Damp=F
 DIIS: error= 4.55D-03 at cycle   3 NSaved=   3.
 NSaved= 3 IEnMin= 3 EnMin= 0.488127079889011E-02 IErMin= 3 ErrMin= 4.55D-03
 ErrMax= 4.55D-03  0.00D+00 EMaxC= 1.00D-01 BMatC= 5.10D-04 BMatP= 1.19D-02
 IDIUse=3 WtCom= 9.55D-01 WtEn= 4.55D-02
 Coeff-Com:  0.175D+00-0.727D+00 0.155D+01
 Coeff-En:   0.000D+00 0.000D+00 0.100D+01
 Coeff:      0.167D+00-0.694D+00 0.153D+01
 Gap=     0.370 Goal=   None    Shift=    0.000
 RMSDP=3.12D-03 MaxDP=2.47D-02 DE=-4.04D-02 OVMax= 3.56D-02

 Cycle   4  Pass 1  IDiag  3:
 E= 0.204121259960743E-02 Delta-E=       -0.002840058199 Rises=F Damp=F
 DIIS: error= 1.33D-03 at cycle   4 NSaved=   4.
 NSaved= 4 IEnMin= 4 EnMin= 0.204121259960743E-02 IErMin= 4 ErrMin= 1.33D-03
 ErrMax= 1.33D-03  0.00D+00 EMaxC= 1.00D-01 BMatC= 3.31D-05 BMatP= 5.10D-04
 IDIUse=3 WtCom= 9.87D-01 WtEn= 1.33D-02
 Coeff-Com:  0.174D-01-0.724D-01-0.900D-01 0.115D+01
 Coeff-En:   0.000D+00 0.000D+00 0.000D+00 0.100D+01
 Coeff:      0.171D-01-0.715D-01-0.888D-01 0.114D+01
 Gap=     0.371 Goal=   None    Shift=    0.000
 RMSDP=8.17D-04 MaxDP=7.77D-03 DE=-2.84D-03 OVMax= 8.41D-03

 Cycle   5  Pass 1  IDiag  3:
 E= 0.185699773291503E-02 Delta-E=       -0.000184214867 Rises=F Damp=F
 DIIS: error= 2.34D-04 at cycle   5 NSaved=   5.
 NSaved= 5 IEnMin= 5 EnMin= 0.185699773291503E-02 IErMin= 5 ErrMin= 2.34D-04
 ErrMax= 2.34D-04  0.00D+00 EMaxC= 1.00D-01 BMatC= 2.45D-06 BMatP= 3.31D-05
 IDIUse=3 WtCom= 9.98D-01 WtEn= 2.34D-03
 Coeff-Com: -0.976D-02 0.425D-01-0.190D-01-0.442D+00 0.143D+01
 Coeff-En:   0.000D+00 0.000D+00 0.000D+00 0.000D+00 0.100D+01
 Coeff:     -0.974D-02 0.424D-01-0.189D-01-0.441D+00 0.143D+01
 Gap=     0.371 Goal=   None    Shift=    0.000
 RMSDP=2.71D-04 MaxDP=2.06D-03 DE=-1.84D-04 OVMax= 3.06D-03

 Cycle   6  Pass 1  IDiag  3:
 E= 0.183965104882589E-02 Delta-E=       -0.000017346684 Rises=F Damp=F
 DIIS: error= 1.15D-04 at cycle   6 NSaved=   6.
 NSaved= 6 IEnMin= 6 EnMin= 0.183965104882589E-02 IErMin= 6 ErrMin= 1.15D-04
 ErrMax= 1.15D-04  0.00D+00 EMaxC= 1.00D-01 BMatC= 2.55D-07 BMatP= 2.45D-06
 IDIUse=3 WtCom= 9.99D-01 WtEn= 1.15D-03
 Coeff-Com:  0.286D-02-0.119D-01 0.130D-01 0.102D+00-0.594D+00 0.149D+01
 Coeff-En:   0.000D+00 0.000D+00 0.000D+00 0.000D+00 0.000D+00 0.100D+01
 Coeff:      0.285D-02-0.119D-01 0.130D-01 0.102D+00-0.593D+00 0.149D+01
 Gap=     0.371 Goal=   None    Shift=    0.000
 RMSDP=1.11D-04 MaxDP=9.01D-04 DE=-1.73D-05 OVMax= 1.45D-03

 Cycle   7  Pass 1  IDiag  3:
 E= 0.183723380915524E-02 Delta-E=       -0.000002417240 Rises=F Damp=F
 DIIS: error= 5.19D-05 at cycle   7 NSaved=   7.
 NSaved= 7 IEnMin= 7 EnMin= 0.183723380915524E-02 IErMin= 7 ErrMin= 5.19D-05
 ErrMax= 5.19D-05  0.00D+00 EMaxC= 1.00D-01 BMatC= 3.36D-08 BMatP= 2.55D-07
 IDIUse=1 WtCom= 1.00D+00 WtEn= 0.00D+00
 Coeff-Com: -0.479D-03 0.139D-02-0.121D-02-0.269D-01 0.205D+00-0.873D+00
 Coeff-Com:  0.170D+01
 Coeff:     -0.479D-03 0.139D-02-0.121D-02-0.269D-01 0.205D+00-0.873D+00
 Coeff:      0.170D+01
 Gap=     0.371 Goal=   None    Shift=    0.000
 RMSDP=5.27D-05 MaxDP=4.87D-04 DE=-2.42D-06 OVMax= 6.44D-04

 Cycle   8  Pass 1  IDiag  3:
 E= 0.183686228059798E-02 Delta-E=       -0.000000371529 Rises=F Damp=F
 DIIS: error= 1.19D-05 at cycle   8 NSaved=   8.
 NSaved= 8 IEnMin= 8 EnMin= 0.183686228059798E-02 IErMin= 8 ErrMin= 1.19D-05
 ErrMax= 1.19D-05  0.00D+00 EMaxC= 1.00D-01 BMatC= 1.92D-09 BMatP= 3.36D-08
 IDIUse=1 WtCom= 1.00D+00 WtEn= 0.00D+00
 Coeff-Com:  0.845D-04 0.251D-04-0.678D-03 0.114D-01-0.821D-01 0.389D+00
 Coeff-Com: -0.949D+00 0.163D+01
 Coeff:      0.845D-04 0.251D-04-0.678D-03 0.114D-01-0.821D-01 0.389D+00
 Coeff:     -0.949D+00 0.163D+01
 Gap=     0.371 Goal=   None    Shift=    0.000
 RMSDP=1.25D-05 MaxDP=1.18D-04 DE=-3.72D-07 OVMax= 1.52D-04

 Cycle   9  Pass 1  IDiag  3:
 E= 0.183684370966830E-02 Delta-E=       -0.000000018571 Rises=F Damp=F
 DIIS: error= 1.32D-06 at cycle   9 NSaved=   9.
 NSaved= 9 IEnMin= 9 EnMin= 0.183684370966830E-02 IErMin= 9 ErrMin= 1.32D-06
 ErrMax= 1.32D-06  0.00D+00 EMaxC= 1.00D-01 BMatC= 6.20D-11 BMatP= 1.92D-09
 IDIUse=1 WtCom= 1.00D+00 WtEn= 0.00D+00
 Coeff-Com:  0.285D-04-0.250D-03 0.571D-03-0.282D-02 0.202D-01-0.108D+00
 Coeff-Com:  0.287D+00-0.613D+00 0.142D+01
 Coeff:      0.285D-04-0.250D-03 0.571D-03-0.282D-02 0.202D-01-0.108D+00
 Coeff:      0.287D+00-0.613D+00 0.142D+01
 Gap=     0.371 Goal=   None    Shift=    0.000
 RMSDP=1.46D-06 MaxDP=1.17D-05 DE=-1.86D-08 OVMax= 1.66D-05

 Cycle  10  Pass 1  IDiag  3:
 E= 0.183684333697443E-02 Delta-E=       -0.000000000373 Rises=F Damp=F
 DIIS: error= 1.43D-07 at cycle  10 NSaved=  10.
 NSaved=10 IEnMin=10 EnMin= 0.183684333697443E-02 IErMin=10 ErrMin= 1.43D-07
 ErrMax= 1.43D-07  0.00D+00 EMaxC= 1.00D-01 BMatC= 2.36D-12 BMatP= 6.20D-11
 IDIUse=1 WtCom= 1.00D+00 WtEn= 0.00D+00
 Coeff-Com: -0.133D-04 0.103D-03-0.225D-03 0.965D-03-0.668D-02 0.364D-01
 Coeff-Com: -0.982D-01 0.213D+00-0.583D+00 0.144D+01
 Coeff:     -0.133D-04 0.103D-03-0.225D-03 0.965D-03-0.668D-02 0.364D-01
 Coeff:     -0.982D-01 0.213D+00-0.583D+00 0.144D+01
 Gap=     0.371 Goal=   None    Shift=    0.000
 RMSDP=2.29D-07 MaxDP=1.00D-06 DE=-3.73D-10 OVMax= 1.34D-06

 Cycle  11  Pass 1  IDiag  3:
 E= 0.183684332377254E-02 Delta-E=       -0.000000000013 Rises=F Damp=F
 DIIS: error= 4.30D-08 at cycle  11 NSaved=  11.
 NSaved=11 IEnMin=11 EnMin= 0.183684332377254E-02 IErMin=11 ErrMin= 4.30D-08
 ErrMax= 4.30D-08  0.00D+00 EMaxC= 1.00D-01 BMatC= 1.32D-13 BMatP= 2.36D-12
 IDIUse=1 WtCom= 1.00D+00 WtEn= 0.00D+00
 Coeff-Com:  0.636D-05-0.489D-04 0.105D-03-0.440D-03 0.297D-02-0.164D-01
 Coeff-Com:  0.444D-01-0.975D-01 0.277D+00-0.807D+00 0.160D+01
 Coeff:      0.636D-05-0.489D-04 0.105D-03-0.440D-03 0.297D-02-0.164D-01
 Coeff:      0.444D-01-0.975D-01 0.277D+00-0.807D+00 0.160D+01
 Gap=     0.371 Goal=   None    Shift=    0.000
 RMSDP=6.46D-08 MaxDP=2.66D-07 DE=-1.32D-11 OVMax= 4.93D-07

 Cycle  12  Pass 1  IDiag  3:
 E= 0.183684332299094E-02 Delta-E=       -0.000000000001 Rises=F Damp=F
 DIIS: error= 1.06D-08 at cycle  12 NSaved=  12.
 NSaved=12 IEnMin=12 EnMin= 0.183684332299094E-02 IErMin=12 ErrMin= 1.06D-08
 ErrMax= 1.06D-08  0.00D+00 EMaxC= 1.00D-01 BMatC= 6.36D-15 BMatP= 1.32D-13
 IDIUse=1 WtCom= 1.00D+00 WtEn= 0.00D+00
 Coeff-Com: -0.136D-05 0.105D-04-0.214D-04 0.873D-04-0.588D-03 0.332D-02
 Coeff-Com: -0.903D-02 0.199D-01-0.587D-01 0.185D+00-0.526D+00 0.139D+01
 Coeff:     -0.136D-05 0.105D-04-0.214D-04 0.873D-04-0.588D-03 0.332D-02
 Coeff:     -0.903D-02 0.199D-01-0.587D-01 0.185D+00-0.526D+00 0.139D+01
 Gap=     0.371 Goal=   None    Shift=    0.000
 RMSDP=1.47D-08 MaxDP=7.34D-08 DE=-7.82D-13 OVMax= 1.42D-07

 Cycle  13  Pass 1  IDiag  3:
 E= 0.183684332296252E-02 Delta-E=        0.000000000000 Rises=F Damp=F
 DIIS: error= 2.24D-09 at cycle  13 NSaved=  13.
 NSaved=13 IEnMin=13 EnMin= 0.183684332296252E-02 IErMin=13 ErrMin= 2.24D-09
 ErrMax= 2.24D-09  0.00D+00 EMaxC= 1.00D-01 BMatC= 3.66D-16 BMatP= 6.36D-15
 IDIUse=1 WtCom= 1.00D+00 WtEn= 0.00D+00
 Coeff-Com:  0.232D-06-0.186D-05 0.345D-05-0.144D-04 0.968D-04-0.567D-03
 Coeff-Com:  0.154D-02-0.338D-02 0.105D-01-0.355D-01 0.125D+00-0.532D+00
 Coeff-Com:  0.144D+01
 Coeff:      0.232D-06-0.186D-05 0.345D-05-0.144D-04 0.968D-04-0.567D-03
 Coeff:      0.154D-02-0.338D-02 0.105D-01-0.355D-01 0.125D+00-0.532D+00
 Coeff:      0.144D+01
 Gap=     0.371 Goal=   None    Shift=    0.000
 RMSDP=3.64D-09 MaxDP=1.77D-08 DE=-2.84D-14 OVMax= 3.96D-08

 Cycle  14  Pass 2  IDiag  1:
 SCF Done:  E(RAM1) =  0.183684332296E-02 A.U. after   14 cycles
            NFock= 13  Conv=0.36D-08     -V/T= 1.0001
 KE=-1.644664418188D+01 PE=-1.713583732796D+02 EE= 8.505249330674D+01
 Leave Link  502 at Sun Mar 20 13:12:31 2016, MaxMem=    33554432 cpu:         0.0
 (Enter /opt/g09/g09/l601.exe)
 Copying SCF densities to generalized density rwf, IOpCl= 0 IROHF=0.

 **********************************************************************

            Population analysis using the SCF density.

 **********************************************************************

 Orbital symmetries:
       Occupied  (A) (A) (A) (A) (A) (A) (A) (A) (A) (A) (A) (A)
                 (A)
       Virtual   (A) (A) (A) (A) (A) (A) (A) (A) (A) (A) (A)
 The electronic state is 1-A.
 Alpha  occ. eigenvalues --   -1.46897  -1.16137  -1.03095  -0.77131  -0.75683
 Alpha  occ. eigenvalues --   -0.63134  -0.53018  -0.51051  -0.46192  -0.45338
 Alpha  occ. eigenvalues --   -0.43298  -0.34002  -0.30025
 Alpha virt. eigenvalues --    0.07044   0.12126   0.16192   0.19923   0.20335
 Alpha virt. eigenvalues --    0.21746   0.23006   0.23477   0.27133   0.29057
 Alpha virt. eigenvalues --    0.30623
          Condensed to atoms (all electrons):
               1          2          3          4          5          6
     1  C    4.236989   0.000000   0.000000   0.000000   0.000000   0.000000
     2  C    0.000000   4.408473   0.000000   0.000000   0.000000   0.000000
     3  O    0.000000   0.000000   5.866873   0.000000   0.000000   0.000000
     4  C    0.000000   0.000000   0.000000   4.395149   0.000000   0.000000
     5  C    0.000000   0.000000   0.000000   0.000000   4.201649   0.000000
     6  H    0.000000   0.000000   0.000000   0.000000   0.000000   0.754551
     7  H    0.000000   0.000000   0.000000   0.000000   0.000000   0.000000
     8  H    0.000000   0.000000   0.000000   0.000000   0.000000   0.000000
     9  H    0.000000   0.000000   0.000000   0.000000   0.000000   0.000000
               7          8          9
     1  C    0.000000   0.000000   0.000000
     2  C    0.000000   0.000000   0.000000
     3  O    0.000000   0.000000   0.000000
     4  C    0.000000   0.000000   0.000000
     5  C    0.000000   0.000000   0.000000
     6  H    0.000000   0.000000   0.000000
     7  H    0.702107   0.000000   0.000000
     8  H    0.000000   0.702118   0.000000
     9  H    0.000000   0.000000   0.732093
 Mulliken charges:
               1
     1  C   -0.236989
     2  C   -0.408473
     3  O    0.133127
     4  C   -0.395149
     5  C   -0.201649
     6  H    0.245449
     7  H    0.297893
     8  H    0.297882
     9  H    0.267907
 Sum of Mulliken charges =   0.00000
 Mulliken charges with hydrogens summed into heavy atoms:
               1
     1  C    0.030918
     2  C   -0.110590
     3  O    0.133127
     4  C   -0.097255
     5  C    0.043800
 Charge=              0.0000 electrons
 Dipole moment (field-independent basis, Debye):
    X=              0.3682    Y=              0.6440    Z=              0.1493  Tot=              0.7568
 N-N= 1.027543609981D+02 E-N=-1.713583732955D+02  KE=-1.644664418188D+01
 Leave Link  601 at Sun Mar 20 13:12:31 2016, MaxMem=    33554432 cpu:         0.0
 (Enter /opt/g09/g09/l701.exe)
 Compute integral first derivatives.
 ... and contract with generalized density number  0.
 Leave Link  701 at Sun Mar 20 13:12:31 2016, MaxMem=    33554432 cpu:         0.0
 (Enter /opt/g09/g09/l702.exe)
 L702 exits ... SP integral derivatives will be done elsewhere.
 Leave Link  702 at Sun Mar 20 13:12:31 2016, MaxMem=    33554432 cpu:         0.0
 (Enter /opt/g09/g09/l703.exe)
 Compute integral first derivatives, UseDBF=F ICtDFT=           0.
 Integral derivatives from FoFJK, PRISM(SPDF).
 Calling FoFJK, ICntrl=      2127 FMM=F ISym2X=0 I1Cent= 0 IOpClX= 0 NMat=1 NMatS=1 NMatT=0.
 FoFJK:  IHMeth= 8 ICntrl=    2127 DoSepK=F KAlg= 0 I1Cent=   0 FoldK=F
 IRaf=         0 NMat=   1 IRICut=       1 DoRegI=T DoRafI=F ISym2E= 0.
 FoFCou: FMM=F IPFlag=           0 FMFlag=      100000 FMFlg1=         800
         NFxFlg=           0 DoJE=F BraDBF=F KetDBF=F FulRan=T
         wScrn=  0.000000 ICntrl=    2127 IOpCl=  0 I1Cent=           0 NGrid=           0
         NMat0=    1 NMatS0=      1 NMatT0=    0 NMatD0=    1 NMtDS0=    0 NMtDT0=    0
 Symmetry not used in FoFCou.
 Leave Link  703 at Sun Mar 20 13:12:31 2016, MaxMem=    33554432 cpu:         0.0
 (Enter /opt/g09/g09/l716.exe)
 Dipole        = 1.44876146D-01 2.53388539D-01 5.87364402D-02
 ***** Axes restored to original set *****
 -------------------------------------------------------------------
 Center     Atomic                   Forces (Hartrees/Bohr)
 Number     Number              X              Y              Z
 -------------------------------------------------------------------
      1        6          -0.075835985   -0.013689312   -0.001746518
      2        6           0.017749493    0.037689845    0.006949534
      3        8           0.027889872   -0.008230046   -0.001426142
      4        6          -0.038323905   -0.004276138   -0.001968273
      5        6           0.055509157    0.040057556    0.000640356
      6        1          -0.011418067   -0.008788319    0.001143916
      7        1           0.002835462    0.002057891   -0.000107271
      8        1          -0.008876276   -0.027855613   -0.002283963
      9        1           0.030470249   -0.016965864   -0.001201639
 -------------------------------------------------------------------
 Cartesian Forces:  Max     0.075835985 RMS     0.025128595
 Leave Link  716 at Sun Mar 20 13:12:31 2016, MaxMem=    33554432 cpu:         0.0
 (Enter /opt/g09/g09/l103.exe)

 GradGradGradGradGradGradGradGradGradGradGradGradGradGradGradGradGradGrad
 Berny optimization.
 FormGI is forming the generalized inverse of G from B-inverse, IUseBI=4.
 Internal  Forces:  Max     0.034070976 RMS     0.012145320
 Search for a local minimum.
 Step number   1 out of a maximum of   48
 All quantities printed in internal units (Hartrees-Bohrs-Radians)
 RMS Force = .12145D-01 SwitMx=.10000D-02 MixMth= 1
 Mixed Optimization -- RFO/linear search
 Second derivative matrix not updated -- first step.
 ITU=  0
     Eigenvalues ---    0.01983   0.02037   0.02063   0.02368   0.02428
     Eigenvalues ---    0.02629   0.15926   0.15962   0.15997   0.16000
     Eigenvalues ---    0.22001   0.22901   0.33025   0.35754   0.40543
     Eigenvalues ---    0.40669   0.42129   0.42883   0.48216   0.49325
     Eigenvalues ---    0.53606
 RFO step:  Lambda=-1.52969636D-02 EMin= 1.98315441D-02
 Linear search not attempted -- first point.
 Iteration  1 RMS(Cart)=  0.02946014 RMS(Int)=  0.00141117
 Iteration  2 RMS(Cart)=  0.00119862 RMS(Int)=  0.00056123
 Iteration  3 RMS(Cart)=  0.00000171 RMS(Int)=  0.00056122
 Iteration  4 RMS(Cart)=  0.00000000 RMS(Int)=  0.00056122
 ITry= 1 IFail=0 DXMaxC= 8.80D-02 DCOld= 1.00D+10 DXMaxT= 3.00D-01 DXLimC= 3.00D+00 Rises=F
 Variable       Old X    -DE/DX   Delta X   Delta X   Delta X     New X
                                 (Linear)    (Quad)   (Total)
    R1        2.66555  -0.02494   0.00000  -0.06027  -0.06043   2.60513
    R2        2.64185   0.02633   0.00000   0.05971   0.05988   2.70173
    R3        1.95459   0.03407   0.00000   0.07804   0.07804   2.03263
    R4        2.59644  -0.01514   0.00000  -0.03574  -0.03600   2.56044
    R5        1.97522   0.02878   0.00000   0.06841   0.06841   2.04363
    R6        2.58805  -0.00586   0.00000  -0.01042  -0.01043   2.57762
    R7        2.54854   0.02154   0.00000   0.04404   0.04429   2.59283
    R8        2.04467   0.00052   0.00000   0.00140   0.00140   2.04607
    R9        2.09007  -0.01441   0.00000  -0.04171  -0.04171   2.04837
    A1        1.79916   0.01271   0.00000   0.05458   0.05460   1.85375
    A2        2.14480   0.00051   0.00000   0.01243   0.01237   2.15717
    A3        2.33774  -0.01317   0.00000  -0.06594  -0.06610   2.27164
    A4        1.94261  -0.00176   0.00000  -0.02579  -0.02691   1.91570
    A5        2.32092  -0.00358   0.00000  -0.01009  -0.01080   2.31013
    A6        2.01557   0.00555   0.00000   0.04227   0.04162   2.05719
    A7        1.84022   0.01531   0.00000   0.04451   0.04427   1.88449
    A8        1.92145  -0.00525   0.00000  -0.00596  -0.00567   1.91577
    A9        2.01770   0.00617   0.00000   0.02318   0.02303   2.04074
   A10        2.34403  -0.00091   0.00000  -0.01720  -0.01735   2.32668
   A11        1.92106  -0.02097   0.00000  -0.06651  -0.06609   1.85496
   A12        2.17379   0.01054   0.00000   0.03345   0.03317   2.20695
   A13        2.18820   0.01042   0.00000   0.03275   0.03246   2.22066
    D1       -0.01982   0.00110   0.00000   0.03288   0.03334   0.01353
    D2       -3.05742  -0.00188   0.00000  -0.05060  -0.04998  -3.10740
    D3        3.07055   0.00146   0.00000   0.04921   0.05003   3.12059
    D4        0.03295  -0.00152   0.00000  -0.03426  -0.03329  -0.00034
    D5        0.02238  -0.00124   0.00000  -0.03238  -0.03251  -0.01012
    D6       -3.10194  -0.00032   0.00000  -0.01377  -0.01445  -3.11639
    D7       -3.05946  -0.00244   0.00000  -0.05572  -0.05462  -3.11408
    D8        0.09940  -0.00152   0.00000  -0.03711  -0.03656   0.06284
    D9        0.01004  -0.00075   0.00000  -0.02177  -0.02176  -0.01172
   D10        3.06741   0.00116   0.00000   0.04327   0.04519   3.11260
   D11        0.00463   0.00008   0.00000   0.00066   0.00039   0.00502
   D12       -3.14057   0.00031   0.00000   0.00616   0.00576  -3.13480
   D13       -0.01769   0.00103   0.00000   0.02177   0.02097   0.00328
   D14        3.10645   0.00009   0.00000   0.00297   0.00273   3.10918
   D15        3.12844   0.00073   0.00000   0.01471   0.01427  -3.14048
   D16       -0.03060  -0.00020   0.00000  -0.00409  -0.00398  -0.03458
         Item               Value     Threshold  Converged?
 Maximum Force            0.034071     0.000450     NO 
 RMS     Force            0.012145     0.000300     NO 
 Maximum Displacement     0.088028     0.001800     NO 
 RMS     Displacement     0.029474     0.001200     NO 
 Predicted change in Energy=-8.081761D-03
 Lowest energy point so far.  Saving SCF results.
 GradGradGradGradGradGradGradGradGradGradGradGradGradGradGradGradGradGrad

 Leave Link  103 at Sun Mar 20 13:12:31 2016, MaxMem=    33554432 cpu:         0.0
 (Enter /opt/g09/g09/l202.exe)
                          Input orientation:                          
 ---------------------------------------------------------------------
 Center     Atomic      Atomic             Coordinates (Angstroms)
 Number     Number       Type             X           Y           Z
 ---------------------------------------------------------------------
      1          6           0        0.982732   -0.691290   -0.026230
      2          6           0       -0.338272   -1.085440   -0.033938
      3          8           0       -1.141894    0.005106   -0.006917
      4          6           0       -0.346983    1.112811    0.033685
      5          6           0        0.972707    0.737401    0.026412
      6          1           0        1.839680    1.388014    0.023908
      7          1           0       -0.845735    2.073299    0.065746
      8          1           0       -0.808028   -2.059511   -0.040038
      9          1           0        1.809239   -1.379655   -0.024871
 ---------------------------------------------------------------------
                    Distance matrix (angstroms):
                    1          2          3          4          5
     1  C    0.000000
     2  C    1.378573   0.000000
     3  O    2.235928   1.354928   0.000000
     4  C    2.241988   2.199308   1.364017   0.000000
     5  C    1.429696   2.246120   2.238058   1.372066   0.000000
     6  H    2.249528   3.296178   3.286817   2.203934   1.083949
     7  H    3.315825   3.200795   2.090553   1.082736   2.256745
     8  H    2.253673   1.081445   2.091700   3.206498   3.316346
     9  H    1.075622   2.167590   3.259919   3.296226   2.276915
                    6          7          8          9
     6  H    0.000000
     7  H    2.771789   0.000000
     8  H    4.347399   4.134335   0.000000
     9  H    2.768266   4.356603   2.704168   0.000000
 Stoichiometry    C4H4O
 Framework group  C1[X(C4H4O)]
 Deg. of freedom    21
 Full point group                 C1      NOp   1
 RotChk:  IX=0 Diff= 8.56D-01
 Largest Abelian subgroup         C1      NOp   1
 Largest concise Abelian subgroup C1      NOp   1
                         Standard orientation:                         
 ---------------------------------------------------------------------
 Center     Atomic      Atomic             Coordinates (Angstroms)
 Number     Number       Type             X           Y           Z
 ---------------------------------------------------------------------
      1          6           0        0.688648    0.981567   -0.006023
      2          6           0        1.105921   -0.332328   -0.000738
      3          8           0        0.029285   -1.154928   -0.004440
      4          6           0       -1.092877   -0.379533    0.003061
      5          6           0       -0.740574    0.946530    0.005141
      6          1           0       -1.405917    1.801961   -0.017263
      7          1           0       -2.045013   -0.895027    0.007815
      8          1           0        2.087833   -0.784938    0.021988
      9          1           0        1.362109    1.820017    0.014347
 ---------------------------------------------------------------------
 Rotational constants (GHZ):      9.4027970      9.2377181      4.6599454
 Leave Link  202 at Sun Mar 20 13:12:31 2016, MaxMem=    33554432 cpu:         0.0
 (Enter /opt/g09/g09/l301.exe)

 Semi-emprical parameters in input format:
 Method=8 CoreType=1 PeptideFC=0.0115023749 RIJScale=0.5498469277
 ****
 H       
 PQN=1 NValence=1 F0ss=0.4721553327 ZetaOverlap=1.0952851616 U=-0.4170812705
 Beta=-0.2268825074 CoreKO=1.0229678371 KON=0,0,0,1.1711189547 KON=1,0,1,1.0589197790
 KON=0,1,1,1.0208246310 KON=2,1,1,1.0589197790 EISol=-0.4188110042 EHeat=0.0830298228
 Alpha=1.5252601686
 GCore=0.0090141628,1.4646307669,2.2733532053
 GCore=0.0003572973,1.2851185010,3.1993476827
 GCore=-0.0012319278,0.5600570362,3.9684248791
 ****
 C       
 PQN=2,2 NValence=4 F0ss=0.4494442496 F0sp=0.4201585839 F0pp=0.3768030831 F2pp=0.1853269360
 G1sp=0.2679025821
 ZetaOverlap=1.8086650000,1.7763413239
 U=-1.9120180828,-1.4557965594
 Beta=-0.5722819218,-0.3092138665 DDN=0,1,0.8337431937 DDN=1,1,0.7663422185
 CoreKO=1.1674129280 KON=0,0,0,1.1124284736 KON=1,0,1,0.7911716224 KON=0,1,1,0.9947781247
 KON=2,1,1,0.8630220569 EISol=-4.4398989268 EHeat=0.2723305520 Alpha=1.4014062429
 DipHyp=1.6673904555
 GCore=0.0008980260,1.4001425905,2.9086362888
 GCore=0.0031649701,1.3637583984,3.4959933458
 GCore=-0.0015747380,1.4001425905,3.6057477340
 GCore=-0.0000888771,1.3812693546,5.3049303093
 ****
 O       
 PQN=2,2 NValence=6 F0ss=0.5848690267 F0sp=0.5321302318 F0pp=0.4958708974 F2pp=0.2344894845
 G1sp=0.4343770262
 ZetaOverlap=3.1092128918,2.5240390000
 U=-3.5951865036,-2.8760896690
 Beta=-1.0757546603,-1.0376781439 DDN=0,1,0.4988896000 DDN=1,1,0.4851967478
 CoreKO=0.8822957477 KON=0,0,0,0.8644959976 KON=1,0,1,0.4674744593 KON=0,1,1,0.9229149174
 KON=2,1,1,0.4733807789 EISol=-11.6164441184 EHeat=0.0949133088 Alpha=2.3576807890
 DipHyp=0.9977217969
 GCore=0.0206944368,1.3203262578,1.6023328031
 GCore=0.0056550009,1.9286482007,2.8620615714
 ****
 
 Standard basis: VSTO-6G (5D, 7F)
 Ernie: Thresh=  0.10000D-02 Tol=  0.10000D-05 Strict=F.
  NNHCO=     0 NNPyr=     0 NCTC=     0               EPep=         0.000000000
    EC=        67.962857000  ECS=         1.771135792   EG=         0.373210534
   EHC=         0.000000000  EAt=       -31.051283842  AtH=         1.516354808
 EPDDG=         0.000000000  ECC=        70.107203326 EAtT=        32.567638650
 There are    24 symmetry adapted cartesian basis functions of A   symmetry.
 There are    24 symmetry adapted basis functions of A   symmetry.
    24 basis functions,   144 primitive gaussians,    24 cartesian basis functions
    13 alpha electrons       13 beta electrons
       nuclear repulsion energy       102.6748419759 Hartrees.
 IExCor=    0 DFT=F Ex=HF Corr=None ExCW=0 ScaHFX=  1.000000
 ScaDFX=  1.000000  1.000000  1.000000  1.000000 ScalE2=  1.000000  1.000000
 IRadAn=      0 IRanWt=     -1 IRanGd=            0 ICorTp=0 IEmpDi=  4
 Integral buffers will be    131072 words long.
 Regular integral format.
 Two-electron integral symmetry is turned off.
 Leave Link  301 at Sun Mar 20 13:12:31 2016, MaxMem=    33554432 cpu:         0.0
 (Enter /opt/g09/g09/l302.exe)
 Do NDO integrals.
 NPDir=0 NMtPBC=     1 NCelOv=     1 NCel=       1 NClECP=     1 NCelD=      1
         NCelK=      1 NCelE2=     1 NClLst=     1 CellRange=     0.0.
 One-electron integrals computed using PRISM.
 NBasis=    24 RedAO= F EigKep=  0.00D+00  NBF=    24
 NBsUse=    24 1.00D-04 EigRej=  0.00D+00 NBFU=    24
 Leave Link  302 at Sun Mar 20 13:12:31 2016, MaxMem=    33554432 cpu:         0.0
 (Enter /opt/g09/g09/l303.exe)
 DipDrv:  MaxL=1.
 Leave Link  303 at Sun Mar 20 13:12:31 2016, MaxMem=    33554432 cpu:         0.0
 (Enter /opt/g09/g09/l401.exe)
 Initial guess from the checkpoint file:  "/opt/g09/scratch/Gau-29746.chk"
 B after Tr=     0.000000    0.000000    0.000000
         Rot=    0.953241   -0.000009   -0.000030   -0.302212 Ang= -35.18 deg.
 Guess basis will be translated and rotated to current coordinates.
 JPrj=0 DoOrth=T DoCkMO=T.
 Leave Link  401 at Sun Mar 20 13:12:31 2016, MaxMem=    33554432 cpu:         0.0
 (Enter /opt/g09/g09/l502.exe)
 Closed shell SCF:
 Using DIIS extrapolation, IDIIS=  1040.
 Overlap will be assumed to be unity.
 Two-electron integral symmetry not used.
 Keep J ints in memory in canonical form, NReq=888082.
 IVT=       79475 IEndB=       79475 NGot=    33554432 MDV=    33473473
 LenX=    33473473 LenY=    33472456
 Requested convergence on RMS density matrix=1.00D-08 within 128 cycles.
 Requested convergence on MAX density matrix=1.00D-06.
 Requested convergence on             energy=1.00D-06.
 No special actions if energy rises.
 FoFCou: FMM=F IPFlag=           0 FMFlag=           0 FMFlg1=           0
         NFxFlg=           0 DoJE=F BraDBF=F KetDBF=F FulRan=T
         wScrn=  0.000000 ICntrl=     600 IOpCl=  2 I1Cent=           0 NGrid=           0
         NMat0=    1 NMatS0=     54 NMatT0=    0 NMatD0=    1 NMtDS0=    0 NMtDT0=    0
 Symmetry not used in FoFCou.

 Cycle   1  Pass 1  IDiag  1:
 E=-0.296666979431848E-02
 DIIS: error= 5.05D-03 at cycle   1 NSaved=   1.
 NSaved= 1 IEnMin= 1 EnMin=-0.296666979431848E-02 IErMin= 1 ErrMin= 5.05D-03
 ErrMax= 5.05D-03  0.00D+00 EMaxC= 1.00D-01 BMatC= 9.36D-04 BMatP= 9.36D-04
 IDIUse=3 WtCom= 9.50D-01 WtEn= 5.05D-02
 Coeff-Com:  0.100D+01
 Coeff-En:   0.100D+01
 Coeff:      0.100D+01
 GapD=    2.000 DampG=2.000 DampE=1.000 DampFc=2.0000 IDamp=-1.
 RMSDP=1.97D-03 MaxDP=7.38D-03              OVMax= 0.00D+00

 Cycle   2  Pass 1  IDiag  3:
 E=-0.551692498196132E-02 Delta-E=       -0.002550255188 Rises=F Damp=F
 DIIS: error= 1.37D-03 at cycle   2 NSaved=   2.
 NSaved= 2 IEnMin= 2 EnMin=-0.551692498196132E-02 IErMin= 2 ErrMin= 1.37D-03
 ErrMax= 1.37D-03  0.00D+00 EMaxC= 1.00D-01 BMatC= 9.47D-05 BMatP= 9.36D-04
 IDIUse=3 WtCom= 9.86D-01 WtEn= 1.37D-02
 Coeff-Com: -0.389D+00 0.139D+01
 Coeff-En:   0.000D+00 0.100D+01
 Coeff:     -0.384D+00 0.138D+01
 Gap=     0.378 Goal=   None    Shift=    0.000
 RMSDP=1.02D-03 MaxDP=3.96D-03 DE=-2.55D-03 OVMax= 3.96D-03

 Cycle   3  Pass 1  IDiag  3:
 E=-0.589621514401983E-02 Delta-E=       -0.000379290162 Rises=F Damp=F
 DIIS: error= 2.76D-04 at cycle   3 NSaved=   3.
 NSaved= 3 IEnMin= 3 EnMin=-0.589621514401983E-02 IErMin= 3 ErrMin= 2.76D-04
 ErrMax= 2.76D-04  0.00D+00 EMaxC= 1.00D-01 BMatC= 3.81D-06 BMatP= 9.47D-05
 IDIUse=3 WtCom= 9.97D-01 WtEn= 2.76D-03
 Coeff-Com:  0.113D+00-0.505D+00 0.139D+01
 Coeff-En:   0.000D+00 0.000D+00 0.100D+01
 Coeff:      0.113D+00-0.503D+00 0.139D+01
 Gap=     0.379 Goal=   None    Shift=    0.000
 RMSDP=2.84D-04 MaxDP=1.31D-03 DE=-3.79D-04 OVMax= 1.37D-03

 Cycle   4  Pass 1  IDiag  3:
 E=-0.591874817504845E-02 Delta-E=       -0.000022533031 Rises=F Damp=F
 DIIS: error= 6.98D-05 at cycle   4 NSaved=   4.
 NSaved= 4 IEnMin= 4 EnMin=-0.591874817504845E-02 IErMin= 4 ErrMin= 6.98D-05
 ErrMax= 6.98D-05  0.00D+00 EMaxC= 1.00D-01 BMatC= 2.66D-07 BMatP= 3.81D-06
 IDIUse=1 WtCom= 1.00D+00 WtEn= 0.00D+00
 Coeff-Com: -0.875D-03 0.287D-01-0.357D+00 0.133D+01
 Coeff:     -0.875D-03 0.287D-01-0.357D+00 0.133D+01
 Gap=     0.379 Goal=   None    Shift=    0.000
 RMSDP=9.08D-05 MaxDP=4.55D-04 DE=-2.25D-05 OVMax= 5.59D-04

 Cycle   5  Pass 1  IDiag  3:
 E=-0.592062901576185E-02 Delta-E=       -0.000001880841 Rises=F Damp=F
 DIIS: error= 2.51D-05 at cycle   5 NSaved=   5.
 NSaved= 5 IEnMin= 5 EnMin=-0.592062901576185E-02 IErMin= 5 ErrMin= 2.51D-05
 ErrMax= 2.51D-05  0.00D+00 EMaxC= 1.00D-01 BMatC= 2.27D-08 BMatP= 2.66D-07
 IDIUse=1 WtCom= 1.00D+00 WtEn= 0.00D+00
 Coeff-Com: -0.762D-02 0.211D-01 0.836D-01-0.650D+00 0.155D+01
 Coeff:     -0.762D-02 0.211D-01 0.836D-01-0.650D+00 0.155D+01
 Gap=     0.379 Goal=   None    Shift=    0.000
 RMSDP=3.15D-05 MaxDP=2.07D-04 DE=-1.88D-06 OVMax= 2.55D-04

 Cycle   6  Pass 1  IDiag  3:
 E=-0.592082185355025E-02 Delta-E=       -0.000000192838 Rises=F Damp=F
 DIIS: error= 8.75D-06 at cycle   6 NSaved=   6.
 NSaved= 6 IEnMin= 6 EnMin=-0.592082185355025E-02 IErMin= 6 ErrMin= 8.75D-06
 ErrMax= 8.75D-06  0.00D+00 EMaxC= 1.00D-01 BMatC= 2.08D-09 BMatP= 2.27D-08
 IDIUse=1 WtCom= 1.00D+00 WtEn= 0.00D+00
 Coeff-Com:  0.422D-02-0.128D-01-0.336D-01 0.326D+00-0.101D+01 0.172D+01
 Coeff:      0.422D-02-0.128D-01-0.336D-01 0.326D+00-0.101D+01 0.172D+01
 Gap=     0.379 Goal=   None    Shift=    0.000
 RMSDP=1.17D-05 MaxDP=8.43D-05 DE=-1.93D-07 OVMax= 1.16D-04

 Cycle   7  Pass 1  IDiag  3:
 E=-0.592084242242663E-02 Delta-E=       -0.000000020569 Rises=F Damp=F
 DIIS: error= 2.26D-06 at cycle   7 NSaved=   7.
 NSaved= 7 IEnMin= 7 EnMin=-0.592084242242663E-02 IErMin= 7 ErrMin= 2.26D-06
 ErrMax= 2.26D-06  0.00D+00 EMaxC= 1.00D-01 BMatC= 1.39D-10 BMatP= 2.08D-09
 IDIUse=1 WtCom= 1.00D+00 WtEn= 0.00D+00
 Coeff-Com: -0.239D-02 0.779D-02 0.105D-01-0.144D+00 0.494D+00-0.104D+01
 Coeff-Com:  0.167D+01
 Coeff:     -0.239D-02 0.779D-02 0.105D-01-0.144D+00 0.494D+00-0.104D+01
 Coeff:      0.167D+01
 Gap=     0.379 Goal=   None    Shift=    0.000
 RMSDP=2.97D-06 MaxDP=2.24D-05 DE=-2.06D-08 OVMax= 3.13D-05

 Cycle   8  Pass 1  IDiag  3:
 E=-0.592084371534440E-02 Delta-E=       -0.000000001293 Rises=F Damp=F
 DIIS: error= 4.62D-07 at cycle   8 NSaved=   8.
 NSaved= 8 IEnMin= 8 EnMin=-0.592084371534440E-02 IErMin= 8 ErrMin= 4.62D-07
 ErrMax= 4.62D-07  0.00D+00 EMaxC= 1.00D-01 BMatC= 7.31D-12 BMatP= 1.39D-10
 IDIUse=1 WtCom= 1.00D+00 WtEn= 0.00D+00
 Coeff-Com:  0.712D-03-0.235D-02-0.255D-02 0.404D-01-0.145D+00 0.330D+00
 Coeff-Com: -0.724D+00 0.150D+01
 Coeff:      0.712D-03-0.235D-02-0.255D-02 0.404D-01-0.145D+00 0.330D+00
 Coeff:     -0.724D+00 0.150D+01
 Gap=     0.379 Goal=   None    Shift=    0.000
 RMSDP=6.50D-07 MaxDP=4.93D-06 DE=-1.29D-09 OVMax= 6.97D-06

 Cycle   9  Pass 1  IDiag  3:
 E=-0.592084377881008E-02 Delta-E=       -0.000000000063 Rises=F Damp=F
 DIIS: error= 9.94D-08 at cycle   9 NSaved=   9.
 NSaved= 9 IEnMin= 9 EnMin=-0.592084377881008E-02 IErMin= 9 ErrMin= 9.94D-08
 ErrMax= 9.94D-08  0.00D+00 EMaxC= 1.00D-01 BMatC= 4.62D-13 BMatP= 7.31D-12
 IDIUse=1 WtCom= 1.00D+00 WtEn= 0.00D+00
 Coeff-Com: -0.329D-03 0.110D-02 0.836D-03-0.170D-01 0.635D-01-0.149D+00
 Coeff-Com:  0.356D+00-0.914D+00 0.166D+01
 Coeff:     -0.329D-03 0.110D-02 0.836D-03-0.170D-01 0.635D-01-0.149D+00
 Coeff:      0.356D+00-0.914D+00 0.166D+01
 Gap=     0.379 Goal=   None    Shift=    0.000
 RMSDP=1.44D-07 MaxDP=9.06D-07 DE=-6.35D-11 OVMax= 1.13D-06

 Cycle  10  Pass 1  IDiag  3:
 E=-0.592084378216384E-02 Delta-E=       -0.000000000003 Rises=F Damp=F
 DIIS: error= 1.92D-08 at cycle  10 NSaved=  10.
 NSaved=10 IEnMin=10 EnMin=-0.592084378216384E-02 IErMin=10 ErrMin= 1.92D-08
 ErrMax= 1.92D-08  0.00D+00 EMaxC= 1.00D-01 BMatC= 2.18D-14 BMatP= 4.62D-13
 IDIUse=1 WtCom= 1.00D+00 WtEn= 0.00D+00
 Coeff-Com:  0.147D-03-0.497D-03-0.290D-03 0.715D-02-0.273D-01 0.646D-01
 Coeff-Com: -0.157D+00 0.414D+00-0.876D+00 0.158D+01
 Coeff:      0.147D-03-0.497D-03-0.290D-03 0.715D-02-0.273D-01 0.646D-01
 Coeff:     -0.157D+00 0.414D+00-0.876D+00 0.158D+01
 Gap=     0.379 Goal=   None    Shift=    0.000
 RMSDP=3.13D-08 MaxDP=1.87D-07 DE=-3.35D-12 OVMax= 2.62D-07

 Cycle  11  Pass 1  IDiag  3:
 E=-0.592084378259017E-02 Delta-E=        0.000000000000 Rises=F Damp=F
 DIIS: error= 5.47D-09 at cycle  11 NSaved=  11.
 NSaved=11 IEnMin=11 EnMin=-0.592084378259017E-02 IErMin=11 ErrMin= 5.47D-09
 ErrMax= 5.47D-09  0.00D+00 EMaxC= 1.00D-01 BMatC= 1.34D-15 BMatP= 2.18D-14
 IDIUse=1 WtCom= 1.00D+00 WtEn= 0.00D+00
 Coeff-Com: -0.402D-04 0.138D-03 0.430D-04-0.176D-02 0.698D-02-0.168D-01
 Coeff-Com:  0.412D-01-0.110D+00 0.253D+00-0.647D+00 0.147D+01
 Coeff:     -0.402D-04 0.138D-03 0.430D-04-0.176D-02 0.698D-02-0.168D-01
 Coeff:      0.412D-01-0.110D+00 0.253D+00-0.647D+00 0.147D+01
 Gap=     0.379 Goal=   None    Shift=    0.000
 RMSDP=6.92D-09 MaxDP=4.49D-08 DE=-4.26D-13 OVMax= 6.06D-08

 Cycle  12  Pass 2  IDiag  1:
 SCF Done:  E(RAM1) = -0.592084378259E-02 A.U. after   12 cycles
            NFock= 11  Conv=0.69D-08     -V/T= 0.9996
 KE=-1.643238932209D+01 PE=-1.712666232778D+02 EE= 8.501824978015D+01
 Leave Link  502 at Sun Mar 20 13:12:31 2016, MaxMem=    33554432 cpu:         0.0
 (Enter /opt/g09/g09/l701.exe)
 Compute integral first derivatives.
 ... and contract with generalized density number  0.
 Leave Link  701 at Sun Mar 20 13:12:31 2016, MaxMem=    33554432 cpu:         0.0
 (Enter /opt/g09/g09/l702.exe)
 L702 exits ... SP integral derivatives will be done elsewhere.
 Leave Link  702 at Sun Mar 20 13:12:31 2016, MaxMem=    33554432 cpu:         0.0
 (Enter /opt/g09/g09/l703.exe)
 Compute integral first derivatives, UseDBF=F ICtDFT=           0.
 Integral derivatives from FoFJK, PRISM(SPDF).
 Calling FoFJK, ICntrl=      2127 FMM=F ISym2X=0 I1Cent= 0 IOpClX= 0 NMat=1 NMatS=1 NMatT=0.
 FoFJK:  IHMeth= 8 ICntrl=    2127 DoSepK=F KAlg= 0 I1Cent=   0 FoldK=F
 IRaf=         0 NMat=   1 IRICut=       1 DoRegI=T DoRafI=F ISym2E= 0.
 FoFCou: FMM=F IPFlag=           0 FMFlag=      100000 FMFlg1=         800
         NFxFlg=           0 DoJE=F BraDBF=F KetDBF=F FulRan=T
         wScrn=  0.000000 ICntrl=    2127 IOpCl=  0 I1Cent=           0 NGrid=           0
         NMat0=    1 NMatS0=      1 NMatT0=    0 NMatD0=    1 NMtDS0=    0 NMtDT0=    0
 Symmetry not used in FoFCou.
 Leave Link  703 at Sun Mar 20 13:12:31 2016, MaxMem=    33554432 cpu:         0.0
 (Enter /opt/g09/g09/l716.exe)
 Dipole        = 5.78124623D-03 2.73547049D-01 1.39043714D-02
 ***** Axes restored to original set *****
 -------------------------------------------------------------------
 Center     Atomic                   Forces (Hartrees/Bohr)
 Number     Number              X              Y              Z
 -------------------------------------------------------------------
      1        6          -0.006827396   -0.008551119    0.002822191
      2        6           0.006347776    0.006714192    0.000224103
      3        8          -0.009051435    0.006086543    0.001028728
      4        6          -0.002446639   -0.009128496   -0.000320476
      5        6           0.006384680    0.004845232   -0.003022589
      6        1          -0.002406193   -0.002669901    0.001142936
      7        1           0.001808908   -0.000468762   -0.000114867
      8        1           0.000511664    0.000072091   -0.000879788
      9        1           0.005678635    0.003100220   -0.000880238
 -------------------------------------------------------------------
 Cartesian Forces:  Max     0.009128496 RMS     0.004543435
 Leave Link  716 at Sun Mar 20 13:12:31 2016, MaxMem=    33554432 cpu:         0.0
 (Enter /opt/g09/g09/l103.exe)

 GradGradGradGradGradGradGradGradGradGradGradGradGradGradGradGradGradGrad
 Berny optimization.
 Using GEDIIS/GDIIS optimizer.
 FormGI is forming the generalized inverse of G from B-inverse, IUseBI=4.
 Internal  Forces:  Max     0.007197279 RMS     0.002701778
 Search for a local minimum.
 Step number   2 out of a maximum of   48
 All quantities printed in internal units (Hartrees-Bohrs-Radians)
 RMS Force = .27018D-02 SwitMx=.10000D-02 MixMth= 1
 Mixed Optimization -- RFO/linear search
 Update second derivatives using D2CorX and points    1    2
 DE= -7.76D-03 DEPred=-8.08D-03 R= 9.60D-01
 TightC=F SS=  1.41D+00  RLast= 2.42D-01 DXNew= 5.0454D-01 7.2597D-01
 Trust test= 9.60D-01 RLast= 2.42D-01 DXMaxT set to 5.05D-01
 ITU=  1  0
 Use linear search instead of GDIIS.
     Eigenvalues ---    0.01974   0.02038   0.02069   0.02371   0.02420
     Eigenvalues ---    0.02624   0.14531   0.15986   0.15999   0.16064
     Eigenvalues ---    0.21493   0.24968   0.32524   0.35739   0.40554
     Eigenvalues ---    0.40858   0.41655   0.44917   0.48746   0.50327
     Eigenvalues ---    0.53274
 RFO step:  Lambda=-1.41966321D-03 EMin= 1.97395516D-02
 Quartic linear search produced a step of  0.01725.
 Iteration  1 RMS(Cart)=  0.01617159 RMS(Int)=  0.00054133
 Iteration  2 RMS(Cart)=  0.00033985 RMS(Int)=  0.00038298
 Iteration  3 RMS(Cart)=  0.00000029 RMS(Int)=  0.00038298
 ITry= 1 IFail=0 DXMaxC= 4.28D-02 DCOld= 1.00D+10 DXMaxT= 5.05D-01 DXLimC= 3.00D+00 Rises=F
 Variable       Old X    -DE/DX   Delta X   Delta X   Delta X     New X
                                 (Linear)    (Quad)   (Total)
    R1        2.60513  -0.00182  -0.00104  -0.00826  -0.00930   2.59583
    R2        2.70173  -0.00162   0.00103   0.00075   0.00181   2.70354
    R3        2.03263   0.00238   0.00135   0.01125   0.01259   2.04522
    R4        2.56044   0.00436  -0.00062   0.00630   0.00565   2.56609
    R5        2.04363  -0.00028   0.00118   0.00414   0.00532   2.04895
    R6        2.57762  -0.00361  -0.00018  -0.00808  -0.00828   2.56934
    R7        2.59283   0.00152   0.00076   0.00579   0.00658   2.59941
    R8        2.04607  -0.00125   0.00002  -0.00345  -0.00342   2.04265
    R9        2.04837  -0.00353  -0.00072  -0.01376  -0.01448   2.03388
    A1        1.85375  -0.00223   0.00094  -0.00624  -0.00556   1.84819
    A2        2.15717   0.00720   0.00021   0.04483   0.04471   2.20188
    A3        2.27164  -0.00493  -0.00114  -0.03710  -0.03855   2.23309
    A4        1.91570   0.00514  -0.00046   0.02147   0.02095   1.93665
    A5        2.31013  -0.00301  -0.00019  -0.01525  -0.01548   2.29465
    A6        2.05719  -0.00212   0.00072  -0.00600  -0.00532   2.05187
    A7        1.88449  -0.00691   0.00076  -0.02610  -0.02539   1.85910
    A8        1.91577   0.00503  -0.00010   0.02130   0.02121   1.93698
    A9        2.04074  -0.00110   0.00040  -0.00030   0.00009   2.04082
   A10        2.32668  -0.00394  -0.00030  -0.02099  -0.02130   2.30538
   A11        1.85496  -0.00102  -0.00114  -0.01002  -0.01122   1.84374
   A12        2.20695  -0.00015   0.00057   0.00123   0.00167   2.20862
   A13        2.22066   0.00119   0.00056   0.00968   0.01011   2.23078
    D1        0.01353  -0.00064   0.00058  -0.02844  -0.02811  -0.01459
    D2       -3.10740  -0.00079  -0.00086  -0.04218  -0.04352   3.13226
    D3        3.12059   0.00005   0.00086   0.01181   0.01383   3.13442
    D4       -0.00034  -0.00010  -0.00057  -0.00192  -0.00158  -0.00192
    D5       -0.01012   0.00062  -0.00056   0.02456   0.02373   0.01360
    D6       -3.11639  -0.00006  -0.00025  -0.00186  -0.00248  -3.11887
    D7       -3.11408  -0.00048  -0.00094  -0.02161  -0.02150  -3.13558
    D8        0.06284  -0.00115  -0.00063  -0.04804  -0.04770   0.01514
    D9       -0.01172   0.00047  -0.00038   0.02159   0.02135   0.00962
   D10        3.11260   0.00057   0.00078   0.03288   0.03418  -3.13641
   D11        0.00502  -0.00010   0.00001  -0.00547  -0.00544  -0.00041
   D12       -3.13480  -0.00012   0.00010  -0.00551  -0.00524  -3.14004
   D13        0.00328  -0.00033   0.00036  -0.01207  -0.01160  -0.00832
   D14        3.10918   0.00031   0.00005   0.01440   0.01482   3.12400
   D15       -3.14048  -0.00029   0.00025  -0.01198  -0.01179   3.13091
   D16       -0.03458   0.00035  -0.00007   0.01449   0.01462  -0.01995
         Item               Value     Threshold  Converged?
 Maximum Force            0.007197     0.000450     NO 
 RMS     Force            0.002702     0.000300     NO 
 Maximum Displacement     0.042795     0.001800     NO 
 RMS     Displacement     0.016257     0.001200     NO 
 Predicted change in Energy=-7.215527D-04
 Lowest energy point so far.  Saving SCF results.
 GradGradGradGradGradGradGradGradGradGradGradGradGradGradGradGradGradGrad

 Leave Link  103 at Sun Mar 20 13:12:31 2016, MaxMem=    33554432 cpu:         0.0
 (Enter /opt/g09/g09/l202.exe)
                          Input orientation:                          
 ---------------------------------------------------------------------
 Center     Atomic      Atomic             Coordinates (Angstroms)
 Number     Number       Type             X           Y           Z
 ---------------------------------------------------------------------
      1          6           0        0.977136   -0.696977   -0.010215
      2          6           0       -0.343240   -1.075410   -0.028017
      3          8           0       -1.159881    0.008983    0.005517
      4          6           0       -0.350925    1.101433    0.032949
      5          6           0        0.974388    0.733396    0.018020
      6          1           0        1.837737    1.376061    0.017816
      7          1           0       -0.834198    2.067828    0.063380
      8          1           0       -0.809456   -2.053841   -0.058573
      9          1           0        1.831885   -1.360738   -0.023119
 ---------------------------------------------------------------------
                    Distance matrix (angstroms):
                    1          2          3          4          5
     1  C    0.000000
     2  C    1.373652   0.000000
     3  O    2.250660   1.357917   0.000000
     4  C    2.236042   2.177710   1.359635   0.000000
     5  C    1.430654   2.238312   2.253893   1.375546   0.000000
     6  H    2.244750   3.281535   3.294657   2.205876   1.076285
     7  H    3.306129   3.182662   2.085248   1.080925   2.248054
     8  H    2.243954   1.084259   2.093358   3.189730   3.310083
     9  H    1.082285   2.193765   3.290535   3.290910   2.263270
                    6          7          8          9
     6  H    0.000000
     7  H    2.760408   0.000000
     8  H    4.333323   4.123546   0.000000
     9  H    2.737111   4.344024   2.730995   0.000000
 Stoichiometry    C4H4O
 Framework group  C1[X(C4H4O)]
 Deg. of freedom    21
 Full point group                 C1      NOp   1
 RotChk:  IX=2 Diff= 5.24D-02
 Largest Abelian subgroup         C1      NOp   1
 Largest concise Abelian subgroup C1      NOp   1
                         Standard orientation:                         
 ---------------------------------------------------------------------
 Center     Atomic      Atomic             Coordinates (Angstroms)
 Number     Number       Type             X           Y           Z
 ---------------------------------------------------------------------
      1          6           0        0.728886    0.955151    0.005471
      2          6           0        1.082087   -0.372282   -0.004105
      3          8           0       -0.018373   -1.167831    0.001072
      4          6           0       -1.095345   -0.337928    0.001639
      5          6           0       -0.701529    0.980032   -0.002574
      6          1           0       -1.327194    1.855641   -0.018175
      7          1           0       -2.071351   -0.802450    0.007053
      8          1           0        2.051794   -0.857304   -0.010328
      9          1           0        1.409139    1.796920    0.010290
 ---------------------------------------------------------------------
 Rotational constants (GHZ):      9.5212652      9.1256944      4.6597524
 Leave Link  202 at Sun Mar 20 13:12:31 2016, MaxMem=    33554432 cpu:         0.0
 (Enter /opt/g09/g09/l301.exe)

 Semi-emprical parameters in input format:
 Method=8 CoreType=1 PeptideFC=0.0115023749 RIJScale=0.5498469277
 ****
 H       
 PQN=1 NValence=1 F0ss=0.4721553327 ZetaOverlap=1.0952851616 U=-0.4170812705
 Beta=-0.2268825074 CoreKO=1.0229678371 KON=0,0,0,1.1711189547 KON=1,0,1,1.0589197790
 KON=0,1,1,1.0208246310 KON=2,1,1,1.0589197790 EISol=-0.4188110042 EHeat=0.0830298228
 Alpha=1.5252601686
 GCore=0.0090141628,1.4646307669,2.2733532053
 GCore=0.0003572973,1.2851185010,3.1993476827
 GCore=-0.0012319278,0.5600570362,3.9684248791
 ****
 C       
 PQN=2,2 NValence=4 F0ss=0.4494442496 F0sp=0.4201585839 F0pp=0.3768030831 F2pp=0.1853269360
 G1sp=0.2679025821
 ZetaOverlap=1.8086650000,1.7763413239
 U=-1.9120180828,-1.4557965594
 Beta=-0.5722819218,-0.3092138665 DDN=0,1,0.8337431937 DDN=1,1,0.7663422185
 CoreKO=1.1674129280 KON=0,0,0,1.1124284736 KON=1,0,1,0.7911716224 KON=0,1,1,0.9947781247
 KON=2,1,1,0.8630220569 EISol=-4.4398989268 EHeat=0.2723305520 Alpha=1.4014062429
 DipHyp=1.6673904555
 GCore=0.0008980260,1.4001425905,2.9086362888
 GCore=0.0031649701,1.3637583984,3.4959933458
 GCore=-0.0015747380,1.4001425905,3.6057477340
 GCore=-0.0000888771,1.3812693546,5.3049303093
 ****
 O       
 PQN=2,2 NValence=6 F0ss=0.5848690267 F0sp=0.5321302318 F0pp=0.4958708974 F2pp=0.2344894845
 G1sp=0.4343770262
 ZetaOverlap=3.1092128918,2.5240390000
 U=-3.5951865036,-2.8760896690
 Beta=-1.0757546603,-1.0376781439 DDN=0,1,0.4988896000 DDN=1,1,0.4851967478
 CoreKO=0.8822957477 KON=0,0,0,0.8644959976 KON=1,0,1,0.4674744593 KON=0,1,1,0.9229149174
 KON=2,1,1,0.4733807789 EISol=-11.6164441184 EHeat=0.0949133088 Alpha=2.3576807890
 DipHyp=0.9977217969
 GCore=0.0206944368,1.3203262578,1.6023328031
 GCore=0.0056550009,1.9286482007,2.8620615714
 ****
 
 Standard basis: VSTO-6G (5D, 7F)
 Ernie: Thresh=  0.10000D-02 Tol=  0.10000D-05 Strict=F.
  NNHCO=     0 NNPyr=     0 NCTC=     0               EPep=         0.000000000
    EC=        67.960760532  ECS=         1.773377271   EG=         0.373666345
   EHC=         0.000000000  EAt=       -31.051283842  AtH=         1.516354808
 EPDDG=         0.000000000  ECC=        70.107804148 EAtT=        32.567638650
 There are    24 symmetry adapted cartesian basis functions of A   symmetry.
 There are    24 symmetry adapted basis functions of A   symmetry.
    24 basis functions,   144 primitive gaussians,    24 cartesian basis functions
    13 alpha electrons       13 beta electrons
       nuclear repulsion energy       102.6754427987 Hartrees.
 IExCor=    0 DFT=F Ex=HF Corr=None ExCW=0 ScaHFX=  1.000000
 ScaDFX=  1.000000  1.000000  1.000000  1.000000 ScalE2=  1.000000  1.000000
 IRadAn=      0 IRanWt=     -1 IRanGd=            0 ICorTp=0 IEmpDi=  4
 Integral buffers will be    131072 words long.
 Regular integral format.
 Two-electron integral symmetry is turned off.
 Leave Link  301 at Sun Mar 20 13:12:31 2016, MaxMem=    33554432 cpu:         0.0
 (Enter /opt/g09/g09/l302.exe)
 Do NDO integrals.
 NPDir=0 NMtPBC=     1 NCelOv=     1 NCel=       1 NClECP=     1 NCelD=      1
         NCelK=      1 NCelE2=     1 NClLst=     1 CellRange=     0.0.
 One-electron integrals computed using PRISM.
 NBasis=    24 RedAO= F EigKep=  0.00D+00  NBF=    24
 NBsUse=    24 1.00D-04 EigRej=  0.00D+00 NBFU=    24
 Leave Link  302 at Sun Mar 20 13:12:31 2016, MaxMem=    33554432 cpu:         0.0
 (Enter /opt/g09/g09/l303.exe)
 DipDrv:  MaxL=1.
 Leave Link  303 at Sun Mar 20 13:12:31 2016, MaxMem=    33554432 cpu:         0.0
 (Enter /opt/g09/g09/l401.exe)
 Initial guess from the checkpoint file:  "/opt/g09/scratch/Gau-29746.chk"
 B after Tr=     0.000000    0.000000    0.000000
         Rot=    0.999815    0.000021    0.000001    0.019260 Ang=   2.21 deg.
 Guess basis will be translated and rotated to current coordinates.
 JPrj=0 DoOrth=T DoCkMO=T.
 Leave Link  401 at Sun Mar 20 13:12:31 2016, MaxMem=    33554432 cpu:         0.0
 (Enter /opt/g09/g09/l502.exe)
 Closed shell SCF:
 Using DIIS extrapolation, IDIIS=  1040.
 Overlap will be assumed to be unity.
 Two-electron integral symmetry not used.
 Keep J ints in memory in canonical form, NReq=888082.
 IVT=       79475 IEndB=       79475 NGot=    33554432 MDV=    33473473
 LenX=    33473473 LenY=    33472456
 Requested convergence on RMS density matrix=1.00D-08 within 128 cycles.
 Requested convergence on MAX density matrix=1.00D-06.
 Requested convergence on             energy=1.00D-06.
 No special actions if energy rises.
 FoFCou: FMM=F IPFlag=           0 FMFlag=           0 FMFlg1=           0
         NFxFlg=           0 DoJE=F BraDBF=F KetDBF=F FulRan=T
         wScrn=  0.000000 ICntrl=     600 IOpCl=  2 I1Cent=           0 NGrid=           0
         NMat0=    1 NMatS0=     54 NMatT0=    0 NMatD0=    1 NMtDS0=    0 NMtDT0=    0
 Symmetry not used in FoFCou.

 Cycle   1  Pass 1  IDiag  1:
 E=-0.600726366663196E-02
 DIIS: error= 1.89D-03 at cycle   1 NSaved=   1.
 NSaved= 1 IEnMin= 1 EnMin=-0.600726366663196E-02 IErMin= 1 ErrMin= 1.89D-03
 ErrMax= 1.89D-03  0.00D+00 EMaxC= 1.00D-01 BMatC= 1.40D-04 BMatP= 1.40D-04
 IDIUse=3 WtCom= 9.81D-01 WtEn= 1.89D-02
 Coeff-Com:  0.100D+01
 Coeff-En:   0.100D+01
 Coeff:      0.100D+01
 GapD=    2.000 DampG=2.000 DampE=1.000 DampFc=2.0000 IDamp=-1.
 RMSDP=8.53D-04 MaxDP=3.46D-03              OVMax= 0.00D+00

 Cycle   2  Pass 1  IDiag  3:
 E=-0.645414592362670E-02 Delta-E=       -0.000446882257 Rises=F Damp=F
 DIIS: error= 7.04D-04 at cycle   2 NSaved=   2.
 NSaved= 2 IEnMin= 2 EnMin=-0.645414592362670E-02 IErMin= 2 ErrMin= 7.04D-04
 ErrMax= 7.04D-04  0.00D+00 EMaxC= 1.00D-01 BMatC= 1.89D-05 BMatP= 1.40D-04
 IDIUse=3 WtCom= 9.93D-01 WtEn= 7.04D-03
 Coeff-Com: -0.482D+00 0.148D+01
 Coeff-En:   0.000D+00 0.100D+01
 Coeff:     -0.479D+00 0.148D+01
 Gap=     0.379 Goal=   None    Shift=    0.000
 RMSDP=5.50D-04 MaxDP=2.54D-03 DE=-4.47D-04 OVMax= 0.00D+00

 Cycle   3  Pass 1  IDiag  3:
 E=-0.654689763126726E-02 Delta-E=       -0.000092751708 Rises=F Damp=F
 DIIS: error= 1.33D-04 at cycle   3 NSaved=   3.
 NSaved= 3 IEnMin= 3 EnMin=-0.654689763126726E-02 IErMin= 3 ErrMin= 1.33D-04
 ErrMax= 1.33D-04  0.00D+00 EMaxC= 1.00D-01 BMatC= 8.66D-07 BMatP= 1.89D-05
 IDIUse=3 WtCom= 9.99D-01 WtEn= 1.33D-03
 Coeff-Com:  0.220D+00-0.794D+00 0.157D+01
 Coeff-En:   0.000D+00 0.000D+00 0.100D+01
 Coeff:      0.220D+00-0.793D+00 0.157D+01
 Gap=     0.379 Goal=   None    Shift=    0.000
 RMSDP=1.67D-04 MaxDP=8.11D-04 DE=-9.28D-05 OVMax= 9.32D-04

 Cycle   4  Pass 1  IDiag  3:
 E=-0.655277542509225E-02 Delta-E=       -0.000005877794 Rises=F Damp=F
 DIIS: error= 2.18D-05 at cycle   4 NSaved=   4.
 NSaved= 4 IEnMin= 4 EnMin=-0.655277542509225E-02 IErMin= 4 ErrMin= 2.18D-05
 ErrMax= 2.18D-05  0.00D+00 EMaxC= 1.00D-01 BMatC= 3.36D-08 BMatP= 8.66D-07
 IDIUse=1 WtCom= 1.00D+00 WtEn= 0.00D+00
 Coeff-Com: -0.567D-01 0.214D+00-0.537D+00 0.138D+01
 Coeff:     -0.567D-01 0.214D+00-0.537D+00 0.138D+01
 Gap=     0.379 Goal=   None    Shift=    0.000
 RMSDP=3.36D-05 MaxDP=1.66D-04 DE=-5.88D-06 OVMax= 2.58D-04

 Cycle   5  Pass 1  IDiag  3:
 E=-0.655303192063172E-02 Delta-E=       -0.000000256496 Rises=F Damp=F
 DIIS: error= 1.09D-05 at cycle   5 NSaved=   5.
 NSaved= 5 IEnMin= 5 EnMin=-0.655303192063172E-02 IErMin= 5 ErrMin= 1.09D-05
 ErrMax= 1.09D-05  0.00D+00 EMaxC= 1.00D-01 BMatC= 3.68D-09 BMatP= 3.36D-08
 IDIUse=1 WtCom= 1.00D+00 WtEn= 0.00D+00
 Coeff-Com: -0.336D-02 0.940D-02 0.171D-01-0.432D+00 0.141D+01
 Coeff:     -0.336D-02 0.940D-02 0.171D-01-0.432D+00 0.141D+01
 Gap=     0.379 Goal=   None    Shift=    0.000
 RMSDP=1.31D-05 MaxDP=8.74D-05 DE=-2.56D-07 OVMax= 1.14D-04

 Cycle   6  Pass 1  IDiag  3:
 E=-0.655306475536577E-02 Delta-E=       -0.000000032835 Rises=F Damp=F
 DIIS: error= 4.39D-06 at cycle   6 NSaved=   6.
 NSaved= 6 IEnMin= 6 EnMin=-0.655306475536577E-02 IErMin= 6 ErrMin= 4.39D-06
 ErrMax= 4.39D-06  0.00D+00 EMaxC= 1.00D-01 BMatC= 4.13D-10 BMatP= 3.68D-09
 IDIUse=1 WtCom= 1.00D+00 WtEn= 0.00D+00
 Coeff-Com:  0.556D-02-0.194D-01 0.263D-01 0.165D+00-0.901D+00 0.172D+01
 Coeff:      0.556D-02-0.194D-01 0.263D-01 0.165D+00-0.901D+00 0.172D+01
 Gap=     0.379 Goal=   None    Shift=    0.000
 RMSDP=5.37D-06 MaxDP=4.08D-05 DE=-3.28D-08 OVMax= 5.46D-05

 Cycle   7  Pass 1  IDiag  3:
 E=-0.655306893435181E-02 Delta-E=       -0.000000004179 Rises=F Damp=F
 DIIS: error= 1.07D-06 at cycle   7 NSaved=   7.
 NSaved= 7 IEnMin= 7 EnMin=-0.655306893435181E-02 IErMin= 7 ErrMin= 1.07D-06
 ErrMax= 1.07D-06  0.00D+00 EMaxC= 1.00D-01 BMatC= 2.57D-11 BMatP= 4.13D-10
 IDIUse=1 WtCom= 1.00D+00 WtEn= 0.00D+00
 Coeff-Com: -0.331D-02 0.117D-01-0.193D-01-0.532D-01 0.389D+00-0.947D+00
 Coeff-Com:  0.162D+01
 Coeff:     -0.331D-02 0.117D-01-0.193D-01-0.532D-01 0.389D+00-0.947D+00
 Coeff:      0.162D+01
 Gap=     0.379 Goal=   None    Shift=    0.000
 RMSDP=1.31D-06 MaxDP=1.04D-05 DE=-4.18D-09 OVMax= 1.33D-05

 Cycle   8  Pass 1  IDiag  3:
 E=-0.655306917936116E-02 Delta-E=       -0.000000000245 Rises=F Damp=F
 DIIS: error= 1.83D-07 at cycle   8 NSaved=   8.
 NSaved= 8 IEnMin= 8 EnMin=-0.655306917936116E-02 IErMin= 8 ErrMin= 1.83D-07
 ErrMax= 1.83D-07  0.00D+00 EMaxC= 1.00D-01 BMatC= 1.35D-12 BMatP= 2.57D-11
 IDIUse=1 WtCom= 1.00D+00 WtEn= 0.00D+00
 Coeff-Com:  0.117D-02-0.418D-02 0.709D-02 0.165D-01-0.133D+00 0.346D+00
 Coeff-Com: -0.764D+00 0.153D+01
 Coeff:      0.117D-02-0.418D-02 0.709D-02 0.165D-01-0.133D+00 0.346D+00
 Coeff:     -0.764D+00 0.153D+01
 Gap=     0.379 Goal=   None    Shift=    0.000
 RMSDP=2.78D-07 MaxDP=2.01D-06 DE=-2.45D-10 OVMax= 2.76D-06

 Cycle   9  Pass 1  IDiag  3:
 E=-0.655306919097143E-02 Delta-E=       -0.000000000012 Rises=F Damp=F
 DIIS: error= 4.40D-08 at cycle   9 NSaved=   9.
 NSaved= 9 IEnMin= 9 EnMin=-0.655306919097143E-02 IErMin= 9 ErrMin= 4.40D-08
 ErrMax= 4.40D-08  0.00D+00 EMaxC= 1.00D-01 BMatC= 8.55D-14 BMatP= 1.35D-12
 IDIUse=1 WtCom= 1.00D+00 WtEn= 0.00D+00
 Coeff-Com: -0.438D-03 0.157D-02-0.275D-02-0.471D-02 0.445D-01-0.122D+00
 Coeff-Com:  0.301D+00-0.801D+00 0.158D+01
 Coeff:     -0.438D-03 0.157D-02-0.275D-02-0.471D-02 0.445D-01-0.122D+00
 Coeff:      0.301D+00-0.801D+00 0.158D+01
 Gap=     0.379 Goal=   None    Shift=    0.000
 RMSDP=6.30D-08 MaxDP=3.24D-07 DE=-1.16D-11 OVMax= 4.91D-07

 Cycle  10  Pass 1  IDiag  3:
 E=-0.655306919176724E-02 Delta-E=       -0.000000000001 Rises=F Damp=F
 DIIS: error= 9.98D-09 at cycle  10 NSaved=  10.
 NSaved=10 IEnMin=10 EnMin=-0.655306919176724E-02 IErMin=10 ErrMin= 9.98D-09
 ErrMax= 9.98D-09  0.00D+00 EMaxC= 1.00D-01 BMatC= 4.39D-15 BMatP= 8.55D-14
 IDIUse=1 WtCom= 1.00D+00 WtEn= 0.00D+00
 Coeff-Com:  0.192D-03-0.686D-03 0.121D-02 0.201D-02-0.195D-01 0.536D-01
 Coeff-Com: -0.136D+00 0.384D+00-0.899D+00 0.161D+01
 Coeff:      0.192D-03-0.686D-03 0.121D-02 0.201D-02-0.195D-01 0.536D-01
 Coeff:     -0.136D+00 0.384D+00-0.899D+00 0.161D+01
 Gap=     0.379 Goal=   None    Shift=    0.000
 RMSDP=1.38D-08 MaxDP=7.07D-08 DE=-7.96D-13 OVMax= 1.20D-07

 Cycle  11  Pass 1  IDiag  3:
 E=-0.655306919186671E-02 Delta-E=        0.000000000000 Rises=F Damp=F
 DIIS: error= 2.20D-09 at cycle  11 NSaved=  11.
 NSaved=11 IEnMin=11 EnMin=-0.655306919186671E-02 IErMin=11 ErrMin= 2.20D-09
 ErrMax= 2.20D-09  0.00D+00 EMaxC= 1.00D-01 BMatC= 2.07D-16 BMatP= 4.39D-15
 IDIUse=1 WtCom= 1.00D+00 WtEn= 0.00D+00
 Coeff-Com: -0.710D-04 0.254D-03-0.451D-03-0.683D-03 0.699D-02-0.195D-01
 Coeff-Com:  0.504D-01-0.145D+00 0.355D+00-0.784D+00 0.154D+01
 Coeff:     -0.710D-04 0.254D-03-0.451D-03-0.683D-03 0.699D-02-0.195D-01
 Coeff:      0.504D-01-0.145D+00 0.355D+00-0.784D+00 0.154D+01
 Gap=     0.379 Goal=   None    Shift=    0.000
 RMSDP=2.94D-09 MaxDP=1.29D-08 DE=-9.95D-14 OVMax= 2.18D-08

 Cycle  12  Pass 2  IDiag  1:
 SCF Done:  E(RAM1) = -0.655306919187E-02 A.U. after   12 cycles
            NFock= 11  Conv=0.29D-08     -V/T= 0.9996
 KE=-1.643539948148D+01 PE=-1.712611716771D+02 EE= 8.501457529067D+01
 Leave Link  502 at Sun Mar 20 13:12:31 2016, MaxMem=    33554432 cpu:         0.0
 (Enter /opt/g09/g09/l701.exe)
 Compute integral first derivatives.
 ... and contract with generalized density number  0.
 Leave Link  701 at Sun Mar 20 13:12:31 2016, MaxMem=    33554432 cpu:         0.0
 (Enter /opt/g09/g09/l702.exe)
 L702 exits ... SP integral derivatives will be done elsewhere.
 Leave Link  702 at Sun Mar 20 13:12:31 2016, MaxMem=    33554432 cpu:         0.0
 (Enter /opt/g09/g09/l703.exe)
 Compute integral first derivatives, UseDBF=F ICtDFT=           0.
 Integral derivatives from FoFJK, PRISM(SPDF).
 Calling FoFJK, ICntrl=      2127 FMM=F ISym2X=0 I1Cent= 0 IOpClX= 0 NMat=1 NMatS=1 NMatT=0.
 FoFJK:  IHMeth= 8 ICntrl=    2127 DoSepK=F KAlg= 0 I1Cent=   0 FoldK=F
 IRaf=         0 NMat=   1 IRICut=       1 DoRegI=T DoRafI=F ISym2E= 0.
 FoFCou: FMM=F IPFlag=           0 FMFlag=      100000 FMFlg1=         800
         NFxFlg=           0 DoJE=F BraDBF=F KetDBF=F FulRan=T
         wScrn=  0.000000 ICntrl=    2127 IOpCl=  0 I1Cent=           0 NGrid=           0
         NMat0=    1 NMatS0=      1 NMatT0=    0 NMatD0=    1 NMtDS0=    0 NMtDT0=    0
 Symmetry not used in FoFCou.
 Leave Link  703 at Sun Mar 20 13:12:31 2016, MaxMem=    33554432 cpu:         0.0
 (Enter /opt/g09/g09/l716.exe)
 Dipole        = 1.59660631D-02 2.91955965D-01-4.46300761D-03
 ***** Axes restored to original set *****
 -------------------------------------------------------------------
 Center     Atomic                   Forces (Hartrees/Bohr)
 Number     Number              X              Y              Z
 -------------------------------------------------------------------
      1        6          -0.000072419   -0.005081012   -0.001741976
      2        6          -0.001465982   -0.004572226    0.001320698
      3        8           0.003414316    0.000649974   -0.000430859
      4        6           0.000592112    0.001450926   -0.000272160
      5        6          -0.004518104    0.000396648    0.000531151
      6        1           0.001128923    0.000891193    0.000544592
      7        1           0.000770202    0.001449633   -0.000090442
      8        1           0.000857415    0.001375822    0.000096331
      9        1          -0.000706463    0.003439041    0.000042665
 -------------------------------------------------------------------
 Cartesian Forces:  Max     0.005081012 RMS     0.002012338
 Leave Link  716 at Sun Mar 20 13:12:31 2016, MaxMem=    33554432 cpu:         0.0
 (Enter /opt/g09/g09/l103.exe)

 GradGradGradGradGradGradGradGradGradGradGradGradGradGradGradGradGradGrad
 Berny optimization.
 Using GEDIIS/GDIIS optimizer.
 FormGI is forming the generalized inverse of G from B-inverse, IUseBI=4.
 Internal  Forces:  Max     0.003087219 RMS     0.001409389
 Search for a local minimum.
 Step number   3 out of a maximum of   48
 All quantities printed in internal units (Hartrees-Bohrs-Radians)
 RMS Force = .14094D-02 SwitMx=.10000D-02 MixMth= 1
 Mixed Optimization -- RFO/linear search
 Update second derivatives using D2CorX and points    1    2    3
 DE= -6.32D-04 DEPred=-7.22D-04 R= 8.76D-01
 TightC=F SS=  1.41D+00  RLast= 1.23D-01 DXNew= 8.4853D-01 3.7006D-01
 Trust test= 8.76D-01 RLast= 1.23D-01 DXMaxT set to 5.05D-01
 ITU=  1  1  0
 Use linear search instead of GDIIS.
     Eigenvalues ---    0.01939   0.02003   0.02164   0.02383   0.02463
     Eigenvalues ---    0.02615   0.10426   0.15999   0.16035   0.16064
     Eigenvalues ---    0.22617   0.30334   0.33708   0.36183   0.40501
     Eigenvalues ---    0.41116   0.43151   0.45147   0.49448   0.49988
     Eigenvalues ---    0.56163
 RFO step:  Lambda=-2.95303144D-04 EMin= 1.93942740D-02
 Quartic linear search produced a step of -0.10097.
 Iteration  1 RMS(Cart)=  0.01134235 RMS(Int)=  0.00016748
 Iteration  2 RMS(Cart)=  0.00012315 RMS(Int)=  0.00012643
 Iteration  3 RMS(Cart)=  0.00000001 RMS(Int)=  0.00012643
 ITry= 1 IFail=0 DXMaxC= 3.00D-02 DCOld= 1.00D+10 DXMaxT= 5.05D-01 DXLimC= 3.00D+00 Rises=F
 Variable       Old X    -DE/DX   Delta X   Delta X   Delta X     New X
                                 (Linear)    (Quad)   (Total)
    R1        2.59583  -0.00059   0.00094  -0.00403  -0.00309   2.59273
    R2        2.70354   0.00213  -0.00018   0.00484   0.00464   2.70818
    R3        2.04522  -0.00267  -0.00127  -0.00145  -0.00272   2.04250
    R4        2.56609   0.00135  -0.00057   0.00434   0.00379   2.56988
    R5        2.04895  -0.00161  -0.00054  -0.00162  -0.00216   2.04680
    R6        2.56934   0.00044   0.00084  -0.00192  -0.00107   2.56827
    R7        2.59941  -0.00309  -0.00066  -0.00314  -0.00381   2.59559
    R8        2.04265   0.00095   0.00035   0.00134   0.00169   2.04434
    R9        2.03388   0.00144   0.00146  -0.00074   0.00072   2.03460
    A1        1.84819   0.00019   0.00056  -0.00011   0.00038   1.84857
    A2        2.20188   0.00224  -0.00451   0.02626   0.02178   2.22366
    A3        2.23309  -0.00243   0.00389  -0.02608  -0.02215   2.21094
    A4        1.93665  -0.00259  -0.00212  -0.00267  -0.00489   1.93176
[...]
     X X        X                                                                                      X            X                
     X X        X                                                                                      X            X                
     X X        X                                                                                                   X                
       X        X                                                                                                   X                
       X        X                                                                                                   X                
       X        X                                                                                                                    
       X        X                                                                                                                    
                X                                                                                                                    
                X                                                                                                                    
                X                                                                                                                    
                X                                                                                                                    
 
 ***** Axes restored to original set *****
 -------------------------------------------------------------------
 Center     Atomic                   Forces (Hartrees/Bohr)
 Number     Number              X              Y              Z
 -------------------------------------------------------------------
      1        6          -0.024569533    0.023206974   -0.000620654
      2        6          -0.014869353    0.017708810    0.005835516
      3        8          -0.012739448   -0.009269643   -0.002589195
      4        6          -0.060184556    0.013684483   -0.000700828
      5        6           0.099596823    0.005797791   -0.001078953
      6        1          -0.011277362   -0.008895638    0.001051547
      7        1           0.002678022    0.002607364    0.000623573
      8        1          -0.008905521   -0.028074313   -0.001829148
      9        1           0.030270928   -0.016765829   -0.000691856
 -------------------------------------------------------------------
 Cartesian Forces:  Max     0.099596823 RMS     0.025834966
 Z-matrix is all fixed cartesians, so copy forces.
 Force constants in Cartesian coordinates: 
                1             2             3             4             5 
      1  0.788150D+00
      2 -0.223577D+00  0.765587D+00
      3  0.123404D-01  0.696454D-02  0.123398D+00
      4 -0.311099D+00 -0.467618D-01 -0.711858D-02  0.604624D+00
      5 -0.115569D+00 -0.104432D+00 -0.230152D-02  0.178997D+00  0.828810D+00
      6 -0.528876D-02 -0.182799D-02 -0.758189D-01 -0.224405D-02  0.955415D-02
      7 -0.104035D+00  0.395108D-01  0.140366D-02 -0.223220D+00  0.177915D+00
      8  0.748351D-01  0.155245D-01 -0.170143D-03  0.385142D-01 -0.193557D+00
      9  0.240604D-02  0.371057D-03  0.798809D-02  0.307339D-02 -0.672384D-02
     10 -0.758558D-01  0.538768D-01  0.260786D-02  0.146344D+00 -0.354655D-01
     11  0.615344D-01 -0.499501D-01 -0.262101D-02  0.362560D-01 -0.156748D+00
     12  0.287860D-02 -0.176134D-02  0.270214D-01  0.649570D-03 -0.628592D-02
     13 -0.324712D-01 -0.290391D-03 -0.816939D-03 -0.786652D-01 -0.596273D-01
     14  0.302405D-01 -0.406238D+00 -0.926159D-02 -0.418128D-01 -0.552372D-01
     15  0.404815D-04 -0.960821D-02 -0.813460D-01 -0.853821D-03 -0.393810D-02
     16  0.143764D-03 -0.289779D-02  0.822882D-04 -0.129688D-02  0.242688D-02
     17 -0.217376D-01 -0.242311D-01 -0.698798D-03 -0.622098D-03 -0.293171D-02
     18 -0.885772D-03 -0.187159D-02  0.823631D-02  0.382330D-03 -0.971460D-04
     19 -0.233539D-02  0.853458D-03 -0.268909D-04 -0.301609D-02 -0.465439D-02
     20 -0.123701D-02  0.909018D-03 -0.386649D-04 -0.556585D-02  0.211717D-03
     21  0.678634D-04 -0.388470D-03  0.941671D-03 -0.112308D-03 -0.349732D-04
     22 -0.138841D-01 -0.223183D-01  0.387312D-03 -0.101495D+00 -0.158641D+00
     23 -0.671603D-02 -0.495158D-02  0.277514D-03 -0.153913D+00 -0.321200D+00
     24 -0.146807D-02 -0.812846D-03  0.145885D-01  0.575942D-02  0.952087D-02
     25 -0.248613D+00  0.201604D+00 -0.885902D-02 -0.321747D-01  0.146189D-01
     26  0.202227D+00 -0.192217D+00  0.784959D-02 -0.509130D-02  0.508307D-02
     27 -0.100909D-01  0.893476D-02 -0.250084D-01  0.464354D-03  0.306311D-03
                6             7             8             9            10 
      6  0.112525D+00
      7  0.882448D-02  0.675156D+00
      8 -0.804908D-02  0.259030D-01  0.470434D+00
      9 -0.383559D-01  0.132403D-02  0.200656D-01  0.200125D-01
     10  0.808537D-03 -0.243545D+00 -0.501766D-01 -0.437550D-02  0.753601D+00
     11 -0.568196D-02 -0.191346D+00 -0.202938D+00 -0.872201D-02 -0.190559D+00
     12 -0.138700D-01 -0.922305D-02 -0.982306D-02 -0.353073D-01 -0.106850D-01
     13 -0.458516D-02 -0.117014D+00 -0.912849D-01 -0.241057D-02 -0.446582D+00
     14 -0.128571D-02 -0.535727D-01  0.254699D-01 -0.821518D-03  0.868938D-01
     15  0.305797D-01 -0.231791D-02  0.156462D-02  0.125253D-01  0.701863D-02
     16  0.183624D-03 -0.188011D-02 -0.167458D-02  0.420955D-04 -0.299926D-01
     17 -0.219335D-03  0.388314D-02 -0.284426D-03 -0.440985D-04  0.421804D-02
     18  0.378757D-02  0.426664D-03  0.556304D-04  0.264015D-02  0.106606D-03
     19 -0.137806D-03  0.849961D-02 -0.171840D-01 -0.927074D-03 -0.997946D-01
     20 -0.143379D-04  0.504118D-02 -0.550115D-01 -0.322904D-02  0.124956D+00
     21  0.107825D-02  0.323022D-03 -0.308954D-02  0.134780D-01  0.606478D-02
     22  0.339731D-02  0.850399D-02  0.195144D-01  0.874201D-03 -0.299347D-02
     23  0.767319D-02 -0.357111D-02 -0.585424D-01 -0.968037D-03  0.530497D-02
     24 -0.284591D-01 -0.244164D-03 -0.161588D-02  0.151518D-01  0.753999D-04
     25 -0.958272D-03 -0.246635D-02  0.155334D-02 -0.656620D-05 -0.118150D-02
     26 -0.148688D-03 -0.376264D-02 -0.109462D-02  0.718013D-04  0.950509D-03
     27  0.853327D-02 -0.516845D-03  0.106220D-02  0.186739D-02 -0.162143D-02
               11            12            13            14            15 
     11  0.786449D+00
     12  0.320373D-01  0.112407D+00
     13  0.169098D+00  0.102439D-01  0.892806D+00
     14 -0.109220D+00 -0.343415D-02  0.789259D-01  0.706400D+00
     15 -0.415148D-02 -0.597482D-01 -0.509797D-02  0.162330D-01  0.124060D+00
     16 -0.148018D-01  0.510493D-05 -0.202097D+00 -0.124474D+00  0.325468D-03
     17  0.474204D-02 -0.798993D-04 -0.127279D+00 -0.135357D+00  0.643490D-03
     18  0.124196D-03  0.721580D-02  0.588653D-03  0.141903D-02 -0.474217D-01
     19  0.128018D+00  0.626189D-02 -0.144324D-01  0.236289D-01  0.134652D-02
     20 -0.270037D+00 -0.106870D-01  0.748235D-02 -0.551187D-02 -0.914073D-03
     21 -0.106133D-01 -0.422217D-01  0.182362D-03 -0.762372D-03  0.136371D-01
     22  0.475857D-02  0.109732D-03 -0.282274D-02 -0.109385D-02 -0.411271D-04
     23  0.116770D-03  0.266208D-03  0.976071D-03  0.608044D-03 -0.644503D-04
     24 -0.128248D-03  0.115525D-02  0.487431D-03  0.254187D-03 -0.632324D-03
     25 -0.295832D-02 -0.240763D-03  0.127793D-02  0.126436D-02 -0.420324D-03
     26 -0.241506D-02 -0.232093D-03  0.219995D-01 -0.209143D-01  0.235205D-03
     27 -0.243611D-03  0.334752D-02  0.140833D-02 -0.234086D-02  0.834639D-02
               16            17            18            19            20 
     16  0.234556D+00
     17  0.141704D+00  0.157867D+00
     18 -0.608241D-03  0.350421D-03  0.269457D-01
     19 -0.173173D-03  0.324617D-03  0.145480D-04  0.110673D+00
     20  0.729878D-04  0.580932D-03  0.136895D-04 -0.131334D+00  0.330350D+00
     21  0.169851D-05  0.211061D-04  0.685530D-04 -0.648715D-02  0.148052D-01
     22 -0.192128D-03 -0.481183D-03 -0.538245D-04  0.800154D-03  0.182863D-03
     23 -0.272791D-03 -0.198851D-03  0.000000D+00 -0.175159D-03 -0.116938D-02
     24 -0.472733D-04  0.276891D-04 -0.110509D-02 -0.212791D-04  0.000000D+00
     25  0.931589D-03 -0.975669D-05  0.290403D-04 -0.220947D-03  0.401846D-03
     26 -0.826864D-04 -0.186767D-03  0.503492D-05  0.522618D-03 -0.321563D-03
     27  0.152140D-04  0.000000D+00 -0.367393D-03 -0.227677D-04  0.634894D-04
               21            22            23            24            25 
     21  0.159228D-01
     22 -0.917998D-04  0.112483D+00
     23  0.943122D-04  0.158570D+00  0.384622D+00
     24 -0.173090D-02 -0.455047D-02 -0.731663D-02  0.924352D-03
     25  0.515238D-04 -0.399694D-03 -0.202540D-03  0.900674D-05  0.282847D+00
     26 -0.319022D-04 -0.491196D-03  0.715689D-03  0.699941D-04 -0.216272D+00
     27 -0.117381D-02 -0.313435D-04  0.372023D-04  0.107669D-03  0.103954D-01
               26            27 
     26  0.211351D+00
     27 -0.781895D-02  0.434737D-02
 Leave Link  716 at Sun Mar 20 13:12:32 2016, MaxMem=    33554432 cpu:         0.0
 (Enter /opt/g09/g09/l103.exe)

 GradGradGradGradGradGradGradGradGradGradGradGradGradGradGradGradGradGrad
 Berny optimization.
 Search for a local minimum.
 Step number   1 out of a maximum of    2
 All quantities printed in internal units (Hartrees-Bohrs-Radians)
 Second derivative matrix not updated -- analytic derivatives used.
 ITU=  0
     Eigenvalues ---   -0.01061   0.00087   0.03145   0.03507   0.05151
     Eigenvalues ---    0.05325   0.07325   0.14151   0.15466   0.16095
     Eigenvalues ---    0.22399   0.27823   0.33702   0.47007   0.61300
     Eigenvalues ---    0.70774   0.96692   1.12483   1.21197   1.35211
     Eigenvalues ---    1.55638
 Eigenvalue     1 is  -1.06D-02 should be greater than     0.000000 Eigenvector:
                          Z8        Z3        Z7        Z9        Z1
   1                    0.76265  -0.43717   0.42477  -0.14477  -0.10216
                          Z6        Z4        Y7        Z5        Y3
   1                    0.10006   0.05958  -0.02215   0.02017   0.01806
 Quadratic step=1.427D+00 exceeds max=3.000D-01 adjusted using Lamda=-5.719D-03.
 Angle between NR and scaled steps=  41.62 degrees.
 Angle between quadratic step and forces=  61.86 degrees.
 Linear search not attempted -- first point.
 TrRot= -0.012089  0.001974  0.010371  1.995012  0.004409 -1.996734
 Variable       Old X    -DE/DX   Delta X   Delta X   Delta X     New X
                                 (Linear)    (Quad)   (Total)
    X1        1.93489  -0.02457   0.00000  -0.03748  -0.05176   1.88312
    Y1       -1.30371   0.02321   0.00000   0.01181   0.01046  -1.29325
    Z1       -0.05714  -0.00062   0.00000   0.03802   0.05704  -0.00010
    X2       -0.62530  -0.01487   0.00000  -0.05438  -0.06992  -0.69521
    Y2       -2.04358   0.01771   0.00000   0.00444   0.00744  -2.03614
    Z2       -0.11387   0.00584   0.00000   0.07419   0.09151  -0.02236
    X3       -2.20450  -0.01274   0.00000  -0.04619  -0.05820  -2.26270
    Y3        0.01521  -0.00927   0.00000  -0.00234   0.00339   0.01861
    Z3       -0.01903  -0.00259   0.00000  -0.00844  -0.00222  -0.02125
    X4       -0.64329  -0.06018   0.00000  -0.03701  -0.04560  -0.68890
    Y4        2.07726   0.01368   0.00000  -0.00863  -0.00533   2.07194
    Z4        0.07365  -0.00070   0.00000  -0.02899  -0.02817   0.04548
    X5        1.79371   0.09960   0.00000   0.08743   0.07754   1.87125
    Y5        1.33303   0.00580   0.00000   0.00619   0.00514   1.33817
    Z5        0.02689  -0.00108   0.00000   0.02914   0.03756   0.06445
    X6        3.44876  -0.01128   0.00000   0.03014   0.02237   3.47113
    Y6        2.60942  -0.00890   0.00000  -0.00967  -0.01336   2.59606
    Z6        0.02125   0.00105   0.00000   0.06127   0.06754   0.08878
    X7       -1.58083   0.00268   0.00000   0.04703   0.04155  -1.53927
    Y7        3.89233   0.00261   0.00000   0.03224   0.03718   3.92951
    Z7        0.15882   0.00062   0.00000  -0.06619  -0.07437   0.08445
    X8       -1.51975  -0.00891   0.00000   0.01442  -0.00423  -1.52398
    Y8       -3.80388  -0.02807   0.00000  -0.09825  -0.09402  -3.89791
    Z8       -0.06101  -0.00183   0.00000  -0.02978  -0.00648  -0.06750
    X9        3.40904   0.03027   0.00000   0.10442   0.08825   3.49729
    Y9       -2.58572  -0.01677   0.00000   0.05380   0.04910  -2.53662
    Z9        0.00401  -0.00069   0.00000  -0.16933  -0.14240  -0.13838
         Item               Value     Threshold  Converged?
 Maximum Force            0.099597     0.000450     NO 
 RMS     Force            0.025835     0.000300     NO 
 Maximum Displacement     0.142398     0.001800     NO 
 RMS     Displacement     0.056559     0.001200     NO 
 Predicted change in Energy=-9.730212D-03
 GradGradGradGradGradGradGradGradGradGradGradGradGradGradGradGradGradGrad

 Leave Link  103 at Sun Mar 20 13:12:32 2016, MaxMem=    33554432 cpu:         0.0
 (Enter /opt/g09/g09/l9999.exe)
 1\1\GINC-LINUX-CBNE\Freq\RAM1-Full\STO-3G\C4H4O1\DUSTIN\20-Mar-2016\0\
 \#P AM1(Input,Print) CIS(Singlets,NStates=10) pop(full) freq\\best1\\0
 ,1\C,1.023898,-0.689893,-0.030238\C,-0.330893,-1.081417,-0.060258\O,-1
 .166573,0.00805,-0.01007\C,-0.340417,1.09924,0.038972\C,0.94919,0.7054
 09,0.014228\H,1.825006,1.380846,0.011243\H,-0.836537,2.059733,0.084044
 \H,-0.804216,-2.012929,-0.032287\H,1.803988,-1.368304,0.002124\\Versio
 n=ES64L-G09RevD.01\State=1-A\HF=0.0018368\RMSD=3.645e-09\RMSF=2.583e-0
 2\ZeroPoint=0.0682389\Thermal=0.0725419\Dipole=0.3453007,0.0620924,0.0
 733982\DipoleDeriv=-0.2884431,0.2425812,0.052825,0.0796361,-0.2263254,
 0.0137363,0.0088513,0.0043389,-0.2669994,0.1688342,0.0906615,-0.043559
 2,-0.3479131,-0.6547877,-0.0229593,-0.0244588,-0.0170132,-0.4221567,-0
 .7716267,-0.023129,0.0132181,-0.0378069,0.5772333,0.0258423,0.0020184,
 0.0162874,-0.0355841,0.1802481,-0.1135246,0.0038402,0.3421469,-0.69883
 82,-0.0126883,0.01461,-0.0018371,-0.3661525,-0.1216607,-0.1583966,-0.0
 292106,0.0159854,-0.1765427,-0.0023274,-0.0119683,-0.0074689,-0.199872
 9,0.1843053,0.0869218,0.0057047,0.0352447,0.1769157,-0.0005423,0.00456
 67,-0.0018575,0.2467203,0.2087347,-0.1184572,-0.0030441,-0.0859386,0.3
 899391,0.0042355,0.0012169,0.0015192,0.3717953,0.1907588,0.1122403,0.0
 071039,0.0857407,0.3795337,-0.0044349,0.0108663,0.0087901,0.3879317,0.
 2488516,-0.1189016,-0.0068781,-0.0870947,0.2328689,-0.0008623,-0.00570
 29,-0.0027621,0.2843182\Polar=40.7358304,-1.3438485,58.9734465,0.07197
 48,1.9925903,11.3878013\PG=C01 [X(C4H4O1)]\NImag=1\\0.78815001,-0.2235
 7724,0.76558714,0.01234035,0.00696454,0.12339768,-0.31109899,-0.046761
 80,-0.00711858,0.60462350,-0.11556899,-0.10443195,-0.00230152,0.178996
 51,0.82881048,-0.00528876,-0.00182799,-0.07581892,-0.00224405,0.009554
 15,0.11252506,-0.10403525,0.03951085,0.00140366,-0.22321970,0.17791453
 ,0.00882448,0.67515552,0.07483508,0.01552446,-0.00017014,0.03851415,-0
 .19355679,-0.00804908,0.02590296,0.47043443,0.00240604,0.00037106,0.00
 798809,0.00307339,-0.00672384,-0.03835593,0.00132403,0.02006555,0.0200
 1252,-0.07585579,0.05387678,0.00260786,0.14634357,-0.03546550,0.000808
 54,-0.24354451,-0.05017656,-0.00437550,0.75360145,0.06153439,-0.049950
 14,-0.00262101,0.03625597,-0.15674784,-0.00568196,-0.19134608,-0.20293
 844,-0.00872201,-0.19055851,0.78644919,0.00287860,-0.00176134,0.027021
 43,0.00064957,-0.00628592,-0.01387004,-0.00922305,-0.00982306,-0.03530
 731,-0.01068498,0.03203732,0.11240706,-0.03247119,-0.00029039,-0.00081
 694,-0.07866516,-0.05962729,-0.00458516,-0.11701376,-0.09128489,-0.002
 41057,-0.44658213,0.16909765,0.01024394,0.89280612,0.03024048,-0.40623
 811,-0.00926159,-0.04181278,-0.05523719,-0.00128571,-0.05357271,0.0254
 6992,-0.00082152,0.08689380,-0.10921966,-0.00343415,0.07892589,0.70640
 035,0.00004048,-0.00960821,-0.08134598,-0.00085382,-0.00393810,0.03057
 970,-0.00231791,0.00156462,0.01252530,0.00701863,-0.00415148,-0.059748
 15,-0.00509797,0.01623301,0.12405988,0.00014376,-0.00289779,0.00008229
 ,-0.00129688,0.00242688,0.00018362,-0.00188011,-0.00167458,0.00004210,
 -0.02999260,-0.01480180,0.00000510,-0.20209670,-0.12447402,0.00032547,
 0.23455620,-0.02173763,-0.02423108,-0.00069880,-0.00062210,-0.00293171
 ,-0.00021933,0.00388314,-0.00028443,-0.00004410,0.00421804,0.00474204,
 -0.00007990,-0.12727889,-0.13535710,0.00064349,0.14170378,0.15786684,-
 0.00088577,-0.00187159,0.00823631,0.00038233,-0.00009715,0.00378757,0.
 00042666,0.00005563,0.00264015,0.00010661,0.00012420,0.00721580,0.0005
 8865,0.00141903,-0.04742174,-0.00060824,0.00035042,0.02694573,-0.00233
 539,0.00085346,-0.00002689,-0.00301609,-0.00465439,-0.00013781,0.00849
 961,-0.01718398,-0.00092707,-0.09979458,0.12801841,0.00626189,-0.01443
 240,0.02362894,0.00134652,-0.00017317,0.00032462,0.00001455,0.11067273
 ,-0.00123701,0.00090902,-0.00003866,-0.00556585,0.00021172,-0.00001434
 ,0.00504118,-0.05501154,-0.00322904,0.12495613,-0.27003735,-0.01068699
 ,0.00748235,-0.00551187,-0.00091407,0.00007299,0.00058093,0.00001369,-
 0.13133442,0.33035004,0.00006786,-0.00038847,0.00094167,-0.00011231,-0
 .00003497,0.00107825,0.00032302,-0.00308954,0.01347801,0.00606478,-0.0
 1061333,-0.04222170,0.00018236,-0.00076237,0.01363709,0.00000170,0.000
 02111,0.00006855,-0.00648715,0.01480518,0.01592283,-0.01388415,-0.0223
 1835,0.00038731,-0.10149492,-0.15864076,0.00339731,0.00850399,0.019514
 41,0.00087420,-0.00299347,0.00475857,0.00010973,-0.00282274,-0.0010938
 5,-0.00004113,-0.00019213,-0.00048118,-0.00005382,0.00080015,0.0001828
 6,-0.00009180,0.11248291,-0.00671603,-0.00495158,0.00027751,-0.1539129
 4,-0.32120011,0.00767319,-0.00357111,-0.05854236,-0.00096804,0.0053049
 7,0.00011677,0.00026621,0.00097607,0.00060804,-0.00006445,-0.00027279,
 -0.00019885,0.00000072,-0.00017516,-0.00116938,0.00009431,0.15856953,0
 .38462175,-0.00146807,-0.00081285,0.01458846,0.00575942,0.00952087,-0.
 02845915,-0.00024416,-0.00161588,0.01515177,0.00007540,-0.00012825,0.0
 0115525,0.00048743,0.00025419,-0.00063232,-0.00004727,0.00002769,-0.00
 110509,-0.00002128,0.00000080,-0.00173090,-0.00455047,-0.00731663,0.00
 092435,-0.24861333,0.20160411,-0.00885902,-0.03217468,0.01461893,-0.00
 095827,-0.00246635,0.00155334,-0.00000657,-0.00118150,-0.00295832,-0.0
 0024076,0.00127793,0.00126436,-0.00042032,0.00093159,-0.00000976,0.000
 02904,-0.00022095,0.00040185,0.00005152,-0.00039969,-0.00020254,0.0000
 0901,0.28284692,0.20222717,-0.19221739,0.00784959,-0.00509130,0.005083
 07,-0.00014869,-0.00376264,-0.00109462,0.00007180,0.00095051,-0.002415
 06,-0.00023209,0.02199948,-0.02091434,0.00023520,-0.00008269,-0.000186
 77,0.00000503,0.00052262,-0.00032156,-0.00003190,-0.00049120,0.0007156
 9,0.00006999,-0.21627191,0.21135089,-0.01009090,0.00893476,-0.02500844
 ,0.00046435,0.00030631,0.00853327,-0.00051685,0.00106220,0.00186739,-0
 .00162143,-0.00024361,0.00334752,0.00140833,-0.00234086,0.00834639,0.0
 0001521,-0.00000059,-0.00036739,-0.00002277,0.00006349,-0.00117381,-0.
 00003134,0.00003720,0.00010767,0.01039541,-0.00781895,0.00434737\\0.02
 456953,-0.02320697,0.00062065,0.01486935,-0.01770881,-0.00583552,0.012
 73945,0.00926964,0.00258920,0.06018456,-0.01368448,0.00070083,-0.09959
 682,-0.00579779,0.00107895,0.01127736,0.00889564,-0.00105155,-0.002678
 02,-0.00260736,-0.00062357,0.00890552,0.02807431,0.00182915,-0.0302709
 3,0.01676583,0.00069186\\\@


 THE TRULY SUCCESSFUL PERFORMANCE OF RESEARCHES IN
 INORGANIC CHEMISTRY IS POSSIBLE ONLY TO ONE WHO IS NOT
 ONLY A THEORETICAL CHEMIST, BUT ALSO AN ACCOMPLISHED
 ANALYST AND, MOREOVER, NOT MERELY A PRACTICALLY TRAINED,
 MECHANICAL WORKER, BUT A THINKING CREATIVE ARTIST.
   --  CLEMENS WINKLER, BER. 33, 1697(1900)
 Job cpu time:       0 days  0 hours  0 minutes  0.5 seconds.
 File lengths (MBytes):  RWF=      6 Int=      0 D2E=      0 Chk=      2 Scr=      1
 Normal termination of Gaussian 09 at Sun Mar 20 13:12:32 2016.
