 Entering Gaussian System, Link 0=g09
 Input=best.com
 Output=best.log
 Initial command:
 /opt/g09/g09/l1.exe "/opt/g09/scratch/Gau-11092.inp" -scrdir="/opt/g09/scratch/"
 Entering Link 1 = /opt/g09/g09/l1.exe PID=     11093.
  
 Copyright (c) 1988,1990,1992,1993,1995,1998,2003,2009,2013,
            Gaussian, Inc.  All Rights Reserved.
  
 This is part of the Gaussian(R) 09 program.  It is based on
 the Gaussian(R) 03 system (copyright 2003, Gaussian, Inc.),
 the Gaussian(R) 98 system (copyright 1998, Gaussian, Inc.),
 the Gaussian(R) 94 system (copyright 1995, Gaussian, Inc.),
 the Gaussian 92(TM) system (copyright 1992, Gaussian, Inc.),
 the Gaussian 90(TM) system (copyright 1990, Gaussian, Inc.),
 the Gaussian 88(TM) system (copyright 1988, Gaussian, Inc.),
 the Gaussian 86(TM) system (copyright 1986, Carnegie Mellon
 University), and the Gaussian 82(TM) system (copyright 1983,
 Carnegie Mellon University). Gaussian is a federally registered
 trademark of Gaussian, Inc.
  
 This software contains proprietary and confidential information,
 including trade secrets, belonging to Gaussian, Inc.
  
 This software is provided under written license and may be
 used, copied, transmitted, or stored only in accord with that
 written license.
  
 The following legend is applicable only to US Government
 contracts under FAR:
  
                    RESTRICTED RIGHTS LEGEND
  
 Use, reproduction and disclosure by the US Government is
 subject to restrictions as set forth in subparagraphs (a)
 and (c) of the Commercial Computer Software - Restricted
 Rights clause in FAR 52.227-19.
  
 Gaussian, Inc.
 340 Quinnipiac St., Bldg. 40, Wallingford CT 06492
  
  
 ---------------------------------------------------------------
 Warning -- This program may not be used in any manner that
 competes with the business of Gaussian, Inc. or will provide
 assistance to any competitor of Gaussian, Inc.  The licensee
 of this program is prohibited from giving any competitor of
 Gaussian, Inc. access to this program.  By using this program,
 the user acknowledges that Gaussian, Inc. is engaged in the
 business of creating and licensing software in the field of
 computational chemistry and represents and warrants to the
 licensee that it is not a competitor of Gaussian, Inc. and that
 it will not use this program in any manner prohibited above.
 ---------------------------------------------------------------
  

 Cite this work as:
 Gaussian 09, Revision D.01,
 M. J. Frisch, G. W. Trucks, H. B. Schlegel, G. E. Scuseria, 
 M. A. Robb, J. R. Cheeseman, G. Scalmani, V. Barone, B. Mennucci, 
 G. A. Petersson, H. Nakatsuji, M. Caricato, X. Li, H. P. Hratchian, 
 A. F. Izmaylov, J. Bloino, G. Zheng, J. L. Sonnenberg, M. Hada, 
 M. Ehara, K. Toyota, R. Fukuda, J. Hasegawa, M. Ishida, T. Nakajima, 
 Y. Honda, O. Kitao, H. Nakai, T. Vreven, J. A. Montgomery, Jr., 
 J. E. Peralta, F. Ogliaro, M. Bearpark, J. J. Heyd, E. Brothers, 
 K. N. Kudin, V. N. Staroverov, T. Keith, R. Kobayashi, J. Normand, 
 K. Raghavachari, A. Rendell, J. C. Burant, S. S. Iyengar, J. Tomasi, 
 M. Cossi, N. Rega, J. M. Millam, M. Klene, J. E. Knox, J. B. Cross, 
 V. Bakken, C. Adamo, J. Jaramillo, R. Gomperts, R. E. Stratmann, 
 O. Yazyev, A. J. Austin, R. Cammi, C. Pomelli, J. W. Ochterski, 
 R. L. Martin, K. Morokuma, V. G. Zakrzewski, G. A. Voth, 
 P. Salvador, J. J. Dannenberg, S. Dapprich, A. D. Daniels, 
 O. Farkas, J. B. Foresman, J. V. Ortiz, J. Cioslowski, 
 and D. J. Fox, Gaussian, Inc., Wallingford CT, 2013.
 
 ******************************************
 Gaussian 09:  ES64L-G09RevD.01 24-Apr-2013
                21-Mar-2016 
 ******************************************
 -----------------------
 #P AM1(Input,Print) opt
 -----------------------
 1/14=-1,18=20,19=15,26=1,38=1/1,3;
 2/9=110,12=2,17=6,18=5,40=1/2;
 3/5=2,16=1,25=1,41=700000,71=1,135=100,136=1/1,2,3;
 4/35=1/1;
 5/5=2,35=1,38=5/2;
 6/7=2,8=2,9=2,10=2,28=1/1;
 7//1,2,3,16;
 1/14=-1,18=20,19=15,26=1/3(2);
 2/9=110/2;
 99//99;
 2/9=110/2;
 3/5=2,16=1,25=1,41=700000,71=1,135=20,136=1/1,2,3;
 4/5=5,16=3,35=1/1;
 5/5=2,35=1,38=5/2;
 7//1,2,3,16;
 1/14=-1,18=20,19=15,26=1/3(-5);
 2/9=110/2;
 6/7=2,8=2,9=2,10=2,19=2,28=1/1;
 99/9=1/99;
 Leave Link    1 at Mon Mar 21 09:26:08 2016, MaxMem=           0 cpu:         0.0
 (Enter /opt/g09/g09/l101.exe)
 ----
 best
 ----
 Symbolic Z-matrix:
 Charge =  0 Multiplicity = 1
 6                     0.95364  -0.70548   0.00931 
 6                    -0.32533  -1.09115  -0.07509 
 8                    -1.15642   0.00668   0.01313 
 6                    -0.36952   1.09569  -0.04289 
 6                     0.95842   0.71685  -0.00352 
 1                     1.8065    1.38023  -0.01405 
 1                    -0.83948   2.05051   0.0126 
 1                    -0.85338  -2.05603  -0.07763 
 1                     1.80934  -1.369    -0.03743 
 
 NAtoms=      9 NQM=        9 NQMF=       0 NMMI=      0 NMMIF=      0
                NMic=       0 NMicF=      0.
                    Isotopes and Nuclear Properties:
 (Nuclear quadrupole moments (NQMom) in fm**2, nuclear magnetic moments (NMagM)
  in nuclear magnetons)

  Atom         1           2           3           4           5           6           7           8           9
 IAtWgt=          12          12          16          12          12           1           1           1           1
 AtmWgt=  12.0000000  12.0000000  15.9949146  12.0000000  12.0000000   1.0078250   1.0078250   1.0078250   1.0078250
 NucSpn=           0           0           0           0           0           1           1           1           1
 AtZEff=   0.0000000   0.0000000   0.0000000   0.0000000   0.0000000   0.0000000   0.0000000   0.0000000   0.0000000
 NQMom=    0.0000000   0.0000000   0.0000000   0.0000000   0.0000000   0.0000000   0.0000000   0.0000000   0.0000000
 NMagM=    0.0000000   0.0000000   0.0000000   0.0000000   0.0000000   2.7928460   2.7928460   2.7928460   2.7928460
 AtZNuc=   6.0000000   6.0000000   8.0000000   6.0000000   6.0000000   1.0000000   1.0000000   1.0000000   1.0000000
 Leave Link  101 at Mon Mar 21 09:26:08 2016, MaxMem=    33554432 cpu:         0.0
 (Enter /opt/g09/g09/l103.exe)

 GradGradGradGradGradGradGradGradGradGradGradGradGradGradGradGradGradGrad
 Berny optimization.
 Initialization pass.
                           ----------------------------
                           !    Initial Parameters    !
                           ! (Angstroms and Degrees)  !
 --------------------------                            --------------------------
 ! Name  Definition              Value          Derivative Info.                !
 --------------------------------------------------------------------------------
 ! R1    R(1,2)                  1.3385         estimate D2E/DX2                !
 ! R2    R(1,5)                  1.4224         estimate D2E/DX2                !
 ! R3    R(1,9)                  1.0838         estimate D2E/DX2                !
 ! R4    R(2,3)                  1.3797         estimate D2E/DX2                !
 ! R5    R(2,8)                  1.0999         estimate D2E/DX2                !
 ! R6    R(3,4)                  1.3447         estimate D2E/DX2                !
 ! R7    R(4,5)                  1.3815         estimate D2E/DX2                !
 ! R8    R(4,7)                  1.0657         estimate D2E/DX2                !
 ! R9    R(5,6)                  1.0768         estimate D2E/DX2                !
 ! A1    A(2,1,5)              106.9033         estimate D2E/DX2                !
 ! A2    A(2,1,9)              125.1193         estimate D2E/DX2                !
 ! A3    A(5,1,9)              127.5274         estimate D2E/DX2                !
 ! A4    A(1,2,3)              110.0147         estimate D2E/DX2                !
 ! A5    A(1,2,8)              135.3668         estimate D2E/DX2                !
 ! A6    A(3,2,8)              114.1394         estimate D2E/DX2                !
 ! A7    A(2,3,4)              106.8116         estimate D2E/DX2                !
 ! A8    A(3,4,5)              109.8302         estimate D2E/DX2                !
 ! A9    A(3,4,7)              117.7349         estimate D2E/DX2                !
 ! A10   A(5,4,7)              131.9226         estimate D2E/DX2                !
 ! A11   A(1,5,4)              105.7379         estimate D2E/DX2                !
 ! A12   A(1,5,6)              128.2277         estimate D2E/DX2                !
 ! A13   A(4,5,6)              126.0064         estimate D2E/DX2                !
 ! D1    D(5,1,2,3)             -6.8737         estimate D2E/DX2                !
 ! D2    D(5,1,2,8)           -178.1622         estimate D2E/DX2                !
 ! D3    D(9,1,2,3)           -179.6508         estimate D2E/DX2                !
 ! D4    D(9,1,2,8)              9.0607         estimate D2E/DX2                !
 ! D5    D(2,1,5,4)              2.3853         estimate D2E/DX2                !
 ! D6    D(2,1,5,6)           -175.7585         estimate D2E/DX2                !
 ! D7    D(9,1,5,4)            174.9344         estimate D2E/DX2                !
 ! D8    D(9,1,5,6)             -3.2094         estimate D2E/DX2                !
 ! D9    D(1,2,3,4)              8.8065         estimate D2E/DX2                !
 ! D10   D(8,2,3,4)           -177.8898         estimate D2E/DX2                !
 ! D11   D(2,3,4,5)             -7.1558         estimate D2E/DX2                !
 ! D12   D(2,3,4,7)           -179.9221         estimate D2E/DX2                !
 ! D13   D(3,4,5,1)              3.0516         estimate D2E/DX2                !
 ! D14   D(3,4,5,6)           -178.7509         estimate D2E/DX2                !
 ! D15   D(7,4,5,1)            174.4369         estimate D2E/DX2                !
 ! D16   D(7,4,5,6)             -7.3656         estimate D2E/DX2                !
 --------------------------------------------------------------------------------
 Trust Radius=3.00D-01 FncErr=1.00D-07 GrdErr=1.00D-07
 Number of steps in this run=     48 maximum allowed number of steps=    100.
 GradGradGradGradGradGradGradGradGradGradGradGradGradGradGradGradGradGrad

 Leave Link  103 at Mon Mar 21 09:26:08 2016, MaxMem=    33554432 cpu:         0.0
 (Enter /opt/g09/g09/l202.exe)
                          Input orientation:                          
 ---------------------------------------------------------------------
 Center     Atomic      Atomic             Coordinates (Angstroms)
 Number     Number       Type             X           Y           Z
 ---------------------------------------------------------------------
      1          6           0        0.953642   -0.705480    0.009309
      2          6           0       -0.325333   -1.091148   -0.075085
      3          8           0       -1.156419    0.006679    0.013128
      4          6           0       -0.369524    1.095685   -0.042886
      5          6           0        0.958419    0.716854   -0.003524
      6          1           0        1.806499    1.380229   -0.014045
      7          1           0       -0.839480    2.050512    0.012601
      8          1           0       -0.853383   -2.056034   -0.077631
      9          1           0        1.809335   -1.369003   -0.037429
 ---------------------------------------------------------------------
                    Distance matrix (angstroms):
                    1          2          3          4          5
     1  C    0.000000
     2  C    1.338521   0.000000
     3  O    2.227003   1.379750   0.000000
     4  C    2.235551   2.187516   1.344721   0.000000
     5  C    1.422400   2.218561   2.230956   1.381483   0.000000
     6  H    2.253462   3.264374   3.265924   2.194738   1.076762
     7  H    3.287976   3.184661   2.068261   1.065660   2.238603
     8  H    2.257630   1.099931   2.086828   3.188834   3.313160
     9  H    1.083816   2.153005   3.269672   3.289703   2.253000
                    6          7          8          9
     6  H    0.000000
     7  H    2.729688   0.000000
     8  H    4.345908   4.107561   0.000000
     9  H    2.749333   4.325715   2.750217   0.000000
 Stoichiometry    C4H4O
 Framework group  C1[X(C4H4O)]
 Deg. of freedom    21
 Full point group                 C1      NOp   1
 Largest Abelian subgroup         C1      NOp   1
 Largest concise Abelian subgroup C1      NOp   1
                         Standard orientation:                         
 ---------------------------------------------------------------------
 Center     Atomic      Atomic             Coordinates (Angstroms)
 Number     Number       Type             X           Y           Z
 ---------------------------------------------------------------------
      1          6           0       -0.837188    0.844619   -0.032908
      2          6           0       -1.039105   -0.476453    0.042165
      3          8           0        0.166066   -1.143599   -0.036502
      4          6           0        1.132239   -0.211042    0.035088
      5          6           0        0.569965    1.050245   -0.003610
      6          1           0        1.106654    1.983478    0.017800
      7          1           0        2.144454   -0.541067   -0.011139
      8          1           0       -1.919637   -1.135544    0.031549
      9          1           0       -1.615468    1.597712    0.009403
 ---------------------------------------------------------------------
 Rotational constants (GHZ):      9.5309160      9.2772888      4.7074975
 Leave Link  202 at Mon Mar 21 09:26:08 2016, MaxMem=    33554432 cpu:         0.0
 (Enter /opt/g09/g09/l301.exe)

 Semi-emprical parameters in input format:
 Method=8 CoreType=1 PeptideFC=0.0112525115 RIJScale=0.5291772086
 ****
 H       
 PQN=1 NValence=1 F0ss=0.4721553327 ZetaOverlap=1.1938233316 U=-0.4188110042
 Beta=-0.2217019066 CoreKO=1.0589197790 KON=0,0,0,1.0589197790 KON=1,0,1,1.1388116636
 KON=0,1,1,0.9232127001 KON=2,1,1,1.0589197790 EISol=-0.4188110042 EHeat=0.0830298228
 Alpha=1.5252601686
 GCore=0.0085899062,1.3393394938,2.2676713595
 GCore=0.0003534810,1.4998112861,3.3718189601
 GCore=-0.0012733648,0.5600570362,3.5719006330
 ****
 C       
 PQN=2,2 NValence=4 F0ss=0.4524288975 F0sp=0.4522095404 F0pp=0.3739486843 F2pp=0.1893151862
 G1sp=0.2569901150
 ZetaOverlap=1.8086650000,1.6851160000
 U=-1.8899642094,-1.4597967663
 Beta=-0.5515723134,-0.2836784428 DDN=0,1,0.8473594566 DDN=1,1,0.7116835943
 CoreKO=1.1895484724 KON=0,0,0,1.1124284736 KON=1,0,1,0.8219701441 KON=0,1,1,1.0730801600
 KON=2,1,1,0.8240378188 EISol=-4.4398989268 EHeat=0.2723305520 Alpha=1.4014062429
 DipHyp=1.6946214145
 GCore=0.0008062681,1.4001425905,2.6974644940
 GCore=0.0034083223,1.4001425905,3.3368976248
 GCore=-0.0013693412,1.3567830806,3.8739385724
 GCore=-0.0000875022,1.5041662649,5.0077742521
 ****
 O       
 PQN=2,2 NValence=6 F0ss=0.5666745976 F0sp=0.5321302318 F0pp=0.4958708974 F2pp=0.2358081713
 G1sp=0.4343770262
 ZetaOverlap=3.0424090325,2.5240390000
 U=-3.5951865036,-2.8760896690
 Beta=-1.0757546603,-1.0757546603 DDN=0,1,0.5460718876 DDN=1,1,0.4852322000
 CoreKO=0.8822957477 KON=0,0,0,0.9198521378 KON=1,0,1,0.5019543089 KON=0,1,1,0.9401631592
 KON=2,1,1,0.5556751753 EISol=-11.6164441184 EHeat=0.0949133088 Alpha=2.5926110419
 DipHyp=1.0920809432
 GCore=0.0196357516,1.2725255633,1.6023328031
 GCore=0.0053190216,1.9601996266,2.7307884326
 ****
 
 Standard basis: VSTO-6G (5D, 7F)
 Ernie: Thresh=  0.10000D-02 Tol=  0.10000D-05 Strict=F.
  NNHCO=     0 NNPyr=     0 NCTC=     0               EPep=         0.000000000
    EC=        67.776262173  ECS=         1.768313225   EG=         0.390071982
   EHC=         0.000000000  EAt=       -31.051283842  AtH=         1.516354808
 EPDDG=         0.000000000  ECC=        69.934647380 EAtT=        32.567638650
 There are    24 symmetry adapted cartesian basis functions of A   symmetry.
 There are    24 symmetry adapted basis functions of A   symmetry.
    24 basis functions,   144 primitive gaussians,    24 cartesian basis functions
    13 alpha electrons       13 beta electrons
       nuclear repulsion energy       102.5022860306 Hartrees.
 IExCor=    0 DFT=F Ex=HF Corr=None ExCW=0 ScaHFX=  1.000000
 ScaDFX=  1.000000  1.000000  1.000000  1.000000 ScalE2=  1.000000  1.000000
 IRadAn=      0 IRanWt=     -1 IRanGd=            0 ICorTp=0 IEmpDi=  4
 Integral buffers will be    131072 words long.
 Regular integral format.
 Two-electron integral symmetry is turned off.
 Leave Link  301 at Mon Mar 21 09:26:08 2016, MaxMem=    33554432 cpu:         0.0
 (Enter /opt/g09/g09/l302.exe)
 Do NDO integrals.
 NPDir=0 NMtPBC=     1 NCelOv=     1 NCel=       1 NClECP=     1 NCelD=      1
         NCelK=      1 NCelE2=     1 NClLst=     1 CellRange=     0.0.
 One-electron integrals computed using PRISM.
 NBasis=    24 RedAO= F EigKep=  0.00D+00  NBF=    24
 NBsUse=    24 1.00D-04 EigRej=  0.00D+00 NBFU=    24
 Leave Link  302 at Mon Mar 21 09:26:08 2016, MaxMem=    33554432 cpu:         0.0
 (Enter /opt/g09/g09/l303.exe)
 DipDrv:  MaxL=1.
 Leave Link  303 at Mon Mar 21 09:26:08 2016, MaxMem=    33554432 cpu:         0.0
 (Enter /opt/g09/g09/l401.exe)
 Simple Huckel Guess.
 JPrj=0 DoOrth=F DoCkMO=F.
 Leave Link  401 at Mon Mar 21 09:26:08 2016, MaxMem=    33554432 cpu:         0.0
 (Enter /opt/g09/g09/l502.exe)
 Closed shell SCF:
 Using DIIS extrapolation, IDIIS=  1040.
 Overlap will be assumed to be unity.
 Two-electron integral symmetry not used.
 Keep J ints in memory in canonical form, NReq=888082.
 IVT=       79475 IEndB=       79475 NGot=    33554432 MDV=    33473473
 LenX=    33473473 LenY=    33472456
 Requested convergence on RMS density matrix=1.00D-08 within 128 cycles.
 Requested convergence on MAX density matrix=1.00D-06.
 Requested convergence on             energy=1.00D-06.
 No special actions if energy rises.
 FoFCou: FMM=F IPFlag=           0 FMFlag=           0 FMFlg1=           0
         NFxFlg=           0 DoJE=F BraDBF=F KetDBF=F FulRan=T
         wScrn=  0.000000 ICntrl=     600 IOpCl=  2 I1Cent=           0 NGrid=           0
         NMat0=    1 NMatS0=     54 NMatT0=    0 NMatD0=    1 NMtDS0=    0 NMtDT0=    0
 Symmetry not used in FoFCou.

 Cycle   1  Pass 1  IDiag  1:
 E= 0.796332742350373    
 DIIS: error= 5.41D-02 at cycle   1 NSaved=   1.
 NSaved= 1 IEnMin= 1 EnMin= 0.796332742350373     IErMin= 1 ErrMin= 5.41D-02
 ErrMax= 5.41D-02  0.00D+00 EMaxC= 1.00D-01 BMatC= 8.07D-02 BMatP= 8.07D-02
 IDIUse=3 WtCom= 4.59D-01 WtEn= 5.41D-01
 Coeff-Com:  0.100D+01
 Coeff-En:   0.100D+01
 Coeff:      0.100D+01
 GapD=    2.000 DampG=2.000 DampE=0.500 DampFc=1.0000 IDamp=-1.
 RMSDP=1.73D-02 MaxDP=1.55D-01              OVMax= 0.00D+00

 Cycle   2  Pass 1  IDiag  1:
 E= 0.583356538059093     Delta-E=       -0.212976204291 Rises=F Damp=F
 DIIS: error= 2.05D-02 at cycle   2 NSaved=   2.
 NSaved= 2 IEnMin= 2 EnMin= 0.583356538059093     IErMin= 2 ErrMin= 2.05D-02
 ErrMax= 2.05D-02  0.00D+00 EMaxC= 1.00D-01 BMatC= 7.71D-03 BMatP= 8.07D-02
 IDIUse=3 WtCom= 7.95D-01 WtEn= 2.05D-01
 Coeff-Com: -0.377D+00 0.138D+01
 Coeff-En:   0.000D+00 0.100D+01
 Coeff:     -0.300D+00 0.130D+01
 RMSDP=7.71D-03 MaxDP=7.96D-02 DE=-2.13D-01 OVMax= 0.00D+00

 Cycle   3  Pass 1  IDiag  1:
 E= 0.557237550627704     Delta-E=       -0.026118987431 Rises=F Damp=F
 DIIS: error= 3.63D-03 at cycle   3 NSaved=   3.
 NSaved= 3 IEnMin= 3 EnMin= 0.557237550627704     IErMin= 3 ErrMin= 3.63D-03
 ErrMax= 3.63D-03  0.00D+00 EMaxC= 1.00D-01 BMatC= 3.54D-04 BMatP= 7.71D-03
 IDIUse=3 WtCom= 9.64D-01 WtEn= 3.63D-02
 Coeff-Com:  0.151D+00-0.637D+00 0.149D+01
 Coeff-En:   0.000D+00 0.000D+00 0.100D+01
 Coeff:      0.145D+00-0.613D+00 0.147D+01
 RMSDP=2.52D-03 MaxDP=2.94D-02 DE=-2.61D-02 OVMax= 0.00D+00

 Cycle   4  Pass 1  IDiag  3:
 E= 0.555253730568893     Delta-E=       -0.001983820059 Rises=F Damp=F
 DIIS: error= 1.15D-03 at cycle   4 NSaved=   4.
 NSaved= 4 IEnMin= 4 EnMin= 0.555253730568893     IErMin= 4 ErrMin= 1.15D-03
 ErrMax= 1.15D-03  0.00D+00 EMaxC= 1.00D-01 BMatC= 2.93D-05 BMatP= 3.54D-04
 IDIUse=3 WtCom= 9.88D-01 WtEn= 1.15D-02
 Coeff-Com:  0.256D-01-0.101D+00-0.124D+00 0.120D+01
 Coeff-En:   0.000D+00 0.000D+00 0.000D+00 0.100D+01
 Coeff:      0.253D-01-0.997D-01-0.123D+00 0.120D+01
 Gap=     0.378 Goal=   None    Shift=    0.000
 RMSDP=8.40D-04 MaxDP=1.06D-02 DE=-1.98D-03 OVMax= 1.08D-02

 Cycle   5  Pass 1  IDiag  3:
 E= 0.555078964033754     Delta-E=       -0.000174766535 Rises=F Damp=F
 DIIS: error= 1.80D-04 at cycle   5 NSaved=   5.
 NSaved= 5 IEnMin= 5 EnMin= 0.555078964033754     IErMin= 5 ErrMin= 1.80D-04
 ErrMax= 1.80D-04  0.00D+00 EMaxC= 1.00D-01 BMatC= 1.69D-06 BMatP= 2.93D-05
 IDIUse=3 WtCom= 9.98D-01 WtEn= 1.80D-03
 Coeff-Com: -0.107D-01 0.427D-01 0.321D-01-0.549D+00 0.149D+01
 Coeff-En:   0.000D+00 0.000D+00 0.000D+00 0.000D+00 0.100D+01
 Coeff:     -0.107D-01 0.426D-01 0.320D-01-0.548D+00 0.148D+01
 Gap=     0.378 Goal=   None    Shift=    0.000
 RMSDP=2.32D-04 MaxDP=1.75D-03 DE=-1.75D-04 OVMax= 2.56D-03

 Cycle   6  Pass 1  IDiag  3:
 E= 0.555066710253925     Delta-E=       -0.000012253780 Rises=F Damp=F
 DIIS: error= 9.49D-05 at cycle   6 NSaved=   6.
 NSaved= 6 IEnMin= 6 EnMin= 0.555066710253925     IErMin= 6 ErrMin= 9.49D-05
 ErrMax= 9.49D-05  0.00D+00 EMaxC= 1.00D-01 BMatC= 1.65D-07 BMatP= 1.69D-06
 IDIUse=1 WtCom= 1.00D+00 WtEn= 0.00D+00
 Coeff-Com:  0.273D-02-0.100D-01-0.825D-02 0.152D+00-0.628D+00 0.149D+01
 Coeff:      0.273D-02-0.100D-01-0.825D-02 0.152D+00-0.628D+00 0.149D+01
 Gap=     0.378 Goal=   None    Shift=    0.000
 RMSDP=8.98D-05 MaxDP=7.67D-04 DE=-1.23D-05 OVMax= 1.17D-03

 Cycle   7  Pass 1  IDiag  3:
 E= 0.555065164649975     Delta-E=       -0.000001545604 Rises=F Damp=F
 DIIS: error= 3.64D-05 at cycle   7 NSaved=   7.
 NSaved= 7 IEnMin= 7 EnMin= 0.555065164649975     IErMin= 7 ErrMin= 3.64D-05
 ErrMax= 3.64D-05  0.00D+00 EMaxC= 1.00D-01 BMatC= 1.91D-08 BMatP= 1.65D-07
 IDIUse=1 WtCom= 1.00D+00 WtEn= 0.00D+00
 Coeff-Com: -0.343D-03 0.329D-03 0.453D-02-0.333D-01 0.177D+00-0.767D+00
 Coeff-Com:  0.162D+01
 Coeff:     -0.343D-03 0.329D-03 0.453D-02-0.333D-01 0.177D+00-0.767D+00
 Coeff:      0.162D+01
 Gap=     0.378 Goal=   None    Shift=    0.000
 RMSDP=3.77D-05 MaxDP=3.50D-04 DE=-1.55D-06 OVMax= 4.31D-04

 Cycle   8  Pass 1  IDiag  3:
 E= 0.555064970857842     Delta-E=       -0.000000193792 Rises=F Damp=F
 DIIS: error= 6.54D-06 at cycle   8 NSaved=   8.
 NSaved= 8 IEnMin= 8 EnMin= 0.555064970857842     IErMin= 8 ErrMin= 6.54D-06
 ErrMax= 6.54D-06  0.00D+00 EMaxC= 1.00D-01 BMatC= 9.09D-10 BMatP= 1.91D-08
 IDIUse=1 WtCom= 1.00D+00 WtEn= 0.00D+00
 Coeff-Com:  0.139D-05 0.524D-03-0.297D-02 0.128D-01-0.624D-01 0.300D+00
 Coeff-Com: -0.791D+00 0.154D+01
 Coeff:      0.139D-05 0.524D-03-0.297D-02 0.128D-01-0.624D-01 0.300D+00
 Coeff:     -0.791D+00 0.154D+01
 Gap=     0.378 Goal=   None    Shift=    0.000
 RMSDP=7.49D-06 MaxDP=6.68D-05 DE=-1.94D-07 OVMax= 9.32D-05

 Cycle   9  Pass 1  IDiag  3:
 E= 0.555064963084249     Delta-E=       -0.000000007774 Rises=F Damp=F
 DIIS: error= 1.20D-06 at cycle   9 NSaved=   9.
 NSaved= 9 IEnMin= 9 EnMin= 0.555064963084249     IErMin= 9 ErrMin= 1.20D-06
 ErrMax= 1.20D-06  0.00D+00 EMaxC= 1.00D-01 BMatC= 4.11D-11 BMatP= 9.09D-10
 IDIUse=1 WtCom= 1.00D+00 WtEn= 0.00D+00
 Coeff-Com:  0.424D-04-0.377D-03 0.103D-02-0.265D-02 0.154D-01-0.949D-01
 Coeff-Com:  0.286D+00-0.714D+00 0.151D+01
 Coeff:      0.424D-04-0.377D-03 0.103D-02-0.265D-02 0.154D-01-0.949D-01
 Coeff:      0.286D+00-0.714D+00 0.151D+01
 Gap=     0.378 Goal=   None    Shift=    0.000
 RMSDP=1.21D-06 MaxDP=1.08D-05 DE=-7.77D-09 OVMax= 1.46D-05

 Cycle  10  Pass 1  IDiag  3:
 E= 0.555064962826435     Delta-E=       -0.000000000258 Rises=F Damp=F
 DIIS: error= 2.05D-07 at cycle  10 NSaved=  10.
 NSaved=10 IEnMin=10 EnMin= 0.555064962826435     IErMin=10 ErrMin= 2.05D-07
 ErrMax= 2.05D-07  0.00D+00 EMaxC= 1.00D-01 BMatC= 1.42D-12 BMatP= 4.11D-11
 IDIUse=1 WtCom= 1.00D+00 WtEn= 0.00D+00
 Coeff-Com: -0.169D-04 0.142D-03-0.371D-03 0.902D-03-0.483D-02 0.311D-01
 Coeff-Com: -0.962D-01 0.248D+00-0.632D+00 0.145D+01
 Coeff:     -0.169D-04 0.142D-03-0.371D-03 0.902D-03-0.483D-02 0.311D-01
 Coeff:     -0.962D-01 0.248D+00-0.632D+00 0.145D+01
 Gap=     0.378 Goal=   None    Shift=    0.000
 RMSDP=1.96D-07 MaxDP=1.88D-06 DE=-2.58D-10 OVMax= 1.36D-06

 Cycle  11  Pass 1  IDiag  3:
 E= 0.555064962818236     Delta-E=       -0.000000000008 Rises=F Damp=F
 DIIS: error= 3.59D-08 at cycle  11 NSaved=  11.
 NSaved=11 IEnMin=11 EnMin= 0.555064962818236     IErMin=11 ErrMin= 3.59D-08
 ErrMax= 3.59D-08  0.00D+00 EMaxC= 1.00D-01 BMatC= 6.67D-14 BMatP= 1.42D-12
 IDIUse=1 WtCom= 1.00D+00 WtEn= 0.00D+00
 Coeff-Com:  0.619D-05-0.536D-04 0.144D-03-0.368D-03 0.183D-02-0.117D-01
 Coeff-Com:  0.364D-01-0.930D-01 0.243D+00-0.658D+00 0.148D+01
 Coeff:      0.619D-05-0.536D-04 0.144D-03-0.368D-03 0.183D-02-0.117D-01
 Coeff:      0.364D-01-0.930D-01 0.243D+00-0.658D+00 0.148D+01
 Gap=     0.378 Goal=   None    Shift=    0.000
 RMSDP=4.47D-08 MaxDP=3.42D-07 DE=-8.20D-12 OVMax= 4.17D-07

 Cycle  12  Pass 1  IDiag  3:
 E= 0.555064962817738     Delta-E=        0.000000000000 Rises=F Damp=F
 DIIS: error= 1.70D-08 at cycle  12 NSaved=  12.
 NSaved=12 IEnMin=12 EnMin= 0.555064962817738     IErMin=12 ErrMin= 1.70D-08
 ErrMax= 1.70D-08  0.00D+00 EMaxC= 1.00D-01 BMatC= 6.78D-15 BMatP= 6.67D-14
 IDIUse=1 WtCom= 1.00D+00 WtEn= 0.00D+00
 Coeff-Com: -0.140D-05 0.120D-04-0.287D-04 0.682D-04-0.319D-03 0.231D-02
 Coeff-Com: -0.742D-02 0.188D-01-0.515D-01 0.168D+00-0.644D+00 0.151D+01
 Coeff:     -0.140D-05 0.120D-04-0.287D-04 0.682D-04-0.319D-03 0.231D-02
 Coeff:     -0.742D-02 0.188D-01-0.515D-01 0.168D+00-0.644D+00 0.151D+01
 Gap=     0.378 Goal=   None    Shift=    0.000
 RMSDP=1.77D-08 MaxDP=1.78D-07 DE=-4.97D-13 OVMax= 1.97D-07

 Cycle  13  Pass 1  IDiag  3:
 E= 0.555064962817795     Delta-E=        0.000000000000 Rises=F Damp=F
 DIIS: error= 5.34D-09 at cycle  13 NSaved=  13.
 NSaved=13 IEnMin=12 EnMin= 0.555064962817738     IErMin=13 ErrMin= 5.34D-09
 ErrMax= 5.34D-09  0.00D+00 EMaxC= 1.00D-01 BMatC= 6.24D-16 BMatP= 6.78D-15
 IDIUse=1 WtCom= 1.00D+00 WtEn= 0.00D+00
 Coeff-Com:  0.235D-06-0.209D-05 0.412D-05-0.925D-05 0.308D-04-0.310D-03
 Coeff-Com:  0.106D-02-0.252D-02 0.710D-02-0.295D-01 0.172D+00-0.717D+00
 Coeff-Com:  0.157D+01
 Coeff:      0.235D-06-0.209D-05 0.412D-05-0.925D-05 0.308D-04-0.310D-03
 Coeff:      0.106D-02-0.252D-02 0.710D-02-0.295D-01 0.172D+00-0.717D+00
 Coeff:      0.157D+01
 Gap=     0.378 Goal=   None    Shift=    0.000
 RMSDP=6.33D-09 MaxDP=6.98D-08 DE= 5.68D-14 OVMax= 7.79D-08

 Cycle  14  Pass 2  IDiag  1:
 SCF Done:  E(RAM1) =  0.555064962818     A.U. after   14 cycles
            NFock= 13  Conv=0.63D-08     -V/T= 1.0360
 KE=-1.541097353509D+01 PE=-1.709977780068D+02 EE= 8.446153047414D+01
 Leave Link  502 at Mon Mar 21 09:26:08 2016, MaxMem=    33554432 cpu:         0.0
 (Enter /opt/g09/g09/l601.exe)
 Copying SCF densities to generalized density rwf, IOpCl= 0 IROHF=0.

 **********************************************************************

            Population analysis using the SCF density.

 **********************************************************************

 Orbital symmetries:
       Occupied  (A) (A) (A) (A) (A) (A) (A) (A) (A) (A) (A) (A)
                 (A)
       Virtual   (A) (A) (A) (A) (A) (A) (A) (A) (A) (A) (A)
 The electronic state is 1-A.
 Alpha  occ. eigenvalues --   -1.48108  -1.11858  -0.97397  -0.74979  -0.71966
 Alpha  occ. eigenvalues --   -0.63457  -0.55753  -0.50839  -0.45676  -0.44877
 Alpha  occ. eigenvalues --   -0.44341  -0.34585  -0.30449
 Alpha virt. eigenvalues --    0.07376   0.11584   0.15308   0.19684   0.21353
 Alpha virt. eigenvalues --    0.22374   0.23601   0.25082   0.27556   0.27982
 Alpha virt. eigenvalues --    0.30087
          Condensed to atoms (all electrons):
               1          2          3          4          5          6
     1  C    4.083339   0.000000   0.000000   0.000000   0.000000   0.000000
     2  C    0.000000   4.149661   0.000000   0.000000   0.000000   0.000000
     3  O    0.000000   0.000000   5.990894   0.000000   0.000000   0.000000
     4  C    0.000000   0.000000   0.000000   4.157283   0.000000   0.000000
     5  C    0.000000   0.000000   0.000000   0.000000   4.103378   0.000000
     6  H    0.000000   0.000000   0.000000   0.000000   0.000000   0.897794
     7  H    0.000000   0.000000   0.000000   0.000000   0.000000   0.000000
     8  H    0.000000   0.000000   0.000000   0.000000   0.000000   0.000000
     9  H    0.000000   0.000000   0.000000   0.000000   0.000000   0.000000
               7          8          9
     1  C    0.000000   0.000000   0.000000
     2  C    0.000000   0.000000   0.000000
     3  O    0.000000   0.000000   0.000000
     4  C    0.000000   0.000000   0.000000
     5  C    0.000000   0.000000   0.000000
     6  H    0.000000   0.000000   0.000000
     7  H    0.857601   0.000000   0.000000
     8  H    0.000000   0.860642   0.000000
     9  H    0.000000   0.000000   0.899407
 Mulliken charges:
               1
     1  C   -0.083339
     2  C   -0.149661
     3  O    0.009106
     4  C   -0.157283
     5  C   -0.103378
     6  H    0.102206
     7  H    0.142399
     8  H    0.139358
     9  H    0.100593
 Sum of Mulliken charges =   0.00000
 Mulliken charges with hydrogens summed into heavy atoms:
               1
     1  C    0.017254
     2  C   -0.010303
     3  O    0.009106
     4  C   -0.014885
     5  C   -0.001172
 Charge=              0.0000 electrons
 Dipole moment (field-independent basis, Debye):
    X=             -0.1299    Y=              0.6445    Z=             -0.0303  Tot=              0.6582
 N-N= 1.025022860306D+02 E-N=-1.709977780162D+02  KE=-1.541097353509D+01
 Leave Link  601 at Mon Mar 21 09:26:08 2016, MaxMem=    33554432 cpu:         0.0
 (Enter /opt/g09/g09/l701.exe)
 Compute integral first derivatives.
 ... and contract with generalized density number  0.
 Leave Link  701 at Mon Mar 21 09:26:08 2016, MaxMem=    33554432 cpu:         0.0
 (Enter /opt/g09/g09/l702.exe)
 L702 exits ... SP integral derivatives will be done elsewhere.
 Leave Link  702 at Mon Mar 21 09:26:08 2016, MaxMem=    33554432 cpu:         0.0
 (Enter /opt/g09/g09/l703.exe)
 Compute integral first derivatives, UseDBF=F ICtDFT=           0.
 Integral derivatives from FoFJK, PRISM(SPDF).
 Calling FoFJK, ICntrl=      2127 FMM=F ISym2X=0 I1Cent= 0 IOpClX= 0 NMat=1 NMatS=1 NMatT=0.
 FoFJK:  IHMeth= 8 ICntrl=    2127 DoSepK=F KAlg= 0 I1Cent=   0 FoldK=F
 IRaf=         0 NMat=   1 IRICut=       1 DoRegI=T DoRafI=F ISym2E= 0.
 FoFCou: FMM=F IPFlag=           0 FMFlag=      100000 FMFlg1=         800
         NFxFlg=           0 DoJE=F BraDBF=F KetDBF=F FulRan=T
         wScrn=  0.000000 ICntrl=    2127 IOpCl=  0 I1Cent=           0 NGrid=           0
         NMat0=    1 NMatS0=      1 NMatT0=    0 NMatD0=    1 NMtDS0=    0 NMtDT0=    0
 Symmetry not used in FoFCou.
 Leave Link  703 at Mon Mar 21 09:26:08 2016, MaxMem=    33554432 cpu:         0.0
 (Enter /opt/g09/g09/l716.exe)
 Dipole        =-5.11000347D-02 2.53582718D-01-1.19360697D-02
 ***** Axes restored to original set *****
 -------------------------------------------------------------------
 Center     Atomic                   Forces (Hartrees/Bohr)
 Number     Number              X              Y              Z
 -------------------------------------------------------------------
      1        6           0.036262404   -0.011928528   -0.015239312
      2        6          -0.043394722   -0.021922739    0.018419883
      3        8          -0.020673419   -0.018964335   -0.014940946
      4        6           0.029318752    0.009253156    0.015329595
      5        6          -0.005949637    0.021171901   -0.002766268
      6        1          -0.001331632   -0.004840238    0.000918760
      7        1          -0.003016266    0.002495791   -0.003265954
      8        1           0.010581168    0.017389854   -0.002134072
      9        1          -0.001796649    0.007345138    0.003678315
 -------------------------------------------------------------------
 Cartesian Forces:  Max     0.043394722 RMS     0.016794987
 Leave Link  716 at Mon Mar 21 09:26:08 2016, MaxMem=    33554432 cpu:         0.0
 (Enter /opt/g09/g09/l103.exe)

 GradGradGradGradGradGradGradGradGradGradGradGradGradGradGradGradGradGrad
 Berny optimization.
 FormGI is forming the generalized inverse of G from B-inverse, IUseBI=4.
 Internal  Forces:  Max     0.032465028 RMS     0.008549226
 Search for a local minimum.
 Step number   1 out of a maximum of   48
 All quantities printed in internal units (Hartrees-Bohrs-Radians)
 RMS Force = .85492D-02 SwitMx=.10000D-02 MixMth= 1
 Mixed Optimization -- RFO/linear search
 Second derivative matrix not updated -- first step.
 ITU=  0
     Eigenvalues ---    0.02016   0.02177   0.02331   0.02393   0.02467
     Eigenvalues ---    0.02753   0.15779   0.15851   0.15883   0.15988
     Eigenvalues ---    0.21959   0.22834   0.33690   0.35537   0.36388
     Eigenvalues ---    0.37784   0.39846   0.43957   0.48328   0.52451
     Eigenvalues ---    0.56508
 RFO step:  Lambda=-1.17400920D-02 EMin= 2.01603983D-02
 Linear search not attempted -- first point.
 Iteration  1 RMS(Cart)=  0.03996961 RMS(Int)=  0.00430150
 Iteration  2 RMS(Cart)=  0.00321004 RMS(Int)=  0.00226903
 Iteration  3 RMS(Cart)=  0.00001507 RMS(Int)=  0.00226897
 Iteration  4 RMS(Cart)=  0.00000002 RMS(Int)=  0.00226897
 ITry= 1 IFail=0 DXMaxC= 1.59D-01 DCOld= 1.00D+10 DXMaxT= 3.00D-01 DXLimC= 3.00D+00 Rises=F
 Variable       Old X    -DE/DX   Delta X   Delta X   Delta X     New X
                                 (Linear)    (Quad)   (Total)
    R1        2.52944   0.03247   0.00000   0.05770   0.05735   2.58679
    R2        2.68795   0.01078   0.00000   0.02389   0.02462   2.71257
    R3        2.04812  -0.00607   0.00000  -0.01655  -0.01655   2.03157
    R4        2.60735  -0.00196   0.00000  -0.00142  -0.00230   2.60505
    R5        2.07857  -0.02033   0.00000  -0.05831  -0.05831   2.02026
    R6        2.54115   0.02588   0.00000   0.04423   0.04397   2.58512
    R7        2.61062  -0.00691   0.00000  -0.01710  -0.01637   2.59426
    R8        2.01381   0.00340   0.00000   0.00872   0.00872   2.02252
    R9        2.03479  -0.00404   0.00000  -0.01075  -0.01075   2.02403
    A1        1.86581  -0.00300   0.00000  -0.00306  -0.00748   1.85833
    A2        2.18374   0.00659   0.00000   0.03703   0.03614   2.21989
    A3        2.22577  -0.00313   0.00000  -0.01997  -0.02090   2.20488
    A4        1.92012  -0.00018   0.00000   0.01624   0.00855   1.92867
    A5        2.36260  -0.00004   0.00000  -0.00137  -0.00346   2.35914
    A6        1.99211   0.00098   0.00000   0.00513   0.00297   1.99508
    A7        1.86421  -0.00400   0.00000  -0.00785  -0.01343   1.85078
    A8        1.91690   0.00726   0.00000   0.02979   0.02409   1.94099
    A9        2.05486  -0.00527   0.00000  -0.01720  -0.01947   2.03539
   A10        2.30248  -0.00128   0.00000   0.00658   0.00429   2.30677
   A11        1.84547   0.00115   0.00000  -0.00033  -0.00163   1.84384
   A12        2.23800  -0.00363   0.00000  -0.01769  -0.01705   2.22095
   A13        2.19923   0.00248   0.00000   0.01804   0.01869   2.21792
    D1       -0.11997   0.00590   0.00000   0.17367   0.17506   0.05509
    D2       -3.10952  -0.00110   0.00000  -0.00801  -0.00577  -3.11528
    D3       -3.13550   0.00260   0.00000   0.06413   0.06273  -3.07277
    D4        0.15814  -0.00441   0.00000  -0.11754  -0.11810   0.04004
    D5        0.04163  -0.00265   0.00000  -0.06670  -0.06584  -0.02421
    D6       -3.06757  -0.00266   0.00000  -0.06778  -0.06664  -3.13421
    D7        3.05318   0.00168   0.00000   0.05174   0.05062   3.10380
    D8       -0.05601   0.00167   0.00000   0.05067   0.04982  -0.00620
    D9        0.15370  -0.00838   0.00000  -0.21942  -0.21766  -0.06396
   D10       -3.10476  -0.00306   0.00000  -0.08064  -0.07852   3.09990
   D11       -0.12489   0.00560   0.00000   0.17173   0.17292   0.04803
   D12       -3.14023   0.00066   0.00000   0.03655   0.03853  -3.10171
   D13        0.05326  -0.00252   0.00000  -0.06818  -0.06835  -0.01509
   D14       -3.11979  -0.00266   0.00000  -0.06799  -0.06841   3.09499
   D15        3.04450   0.00312   0.00000   0.09089   0.09183   3.13633
   D16       -0.12855   0.00299   0.00000   0.09109   0.09177  -0.03679
         Item               Value     Threshold  Converged?
 Maximum Force            0.032465     0.000450     NO 
 RMS     Force            0.008549     0.000300     NO 
 Maximum Displacement     0.158837     0.001800     NO 
 RMS     Displacement     0.040907     0.001200     NO 
 Predicted change in Energy=-7.004030D-03
 Lowest energy point so far.  Saving SCF results.
 GradGradGradGradGradGradGradGradGradGradGradGradGradGradGradGradGradGrad

 Leave Link  103 at Mon Mar 21 09:26:08 2016, MaxMem=    33554432 cpu:         0.0
 (Enter /opt/g09/g09/l202.exe)
                          Input orientation:                          
 ---------------------------------------------------------------------
 Center     Atomic      Atomic             Coordinates (Angstroms)
 Number     Number       Type             X           Y           Z
 ---------------------------------------------------------------------
      1          6           0        0.963871   -0.712498   -0.030969
      2          6           0       -0.348304   -1.102362   -0.032692
      3          8           0       -1.178721   -0.002682   -0.070925
      4          6           0       -0.360057    1.091565   -0.009264
      5          6           0        0.962139    0.722472    0.005256
      6          1           0        1.813842    1.371911    0.010081
      7          1           0       -0.839163    2.048411    0.010450
      8          1           0       -0.860410   -2.040800   -0.033373
      9          1           0        1.830558   -1.347723   -0.064126
 ---------------------------------------------------------------------
                    Distance matrix (angstroms):
                    1          2          3          4          5
     1  C    0.000000
     2  C    1.368868   0.000000
     3  O    2.257462   1.378532   0.000000
     4  C    2.237833   2.194083   1.367987   0.000000
     5  C    1.435428   2.246936   2.261621   1.372822   0.000000
     6  H    2.251421   3.286142   3.294162   2.191986   1.071071
     7  H    3.297766   3.189071   2.080601   1.070274   2.236700
     8  H    2.256633   1.069074   2.063167   3.172167   3.310415
     9  H    1.075061   2.192858   3.296200   3.279013   2.246035
                    6          7          8          9
     6  H    0.000000
     7  H    2.737899   0.000000
     8  H    4.335909   4.089501   0.000000
     9  H    2.720697   4.320497   2.778958   0.000000
 Stoichiometry    C4H4O
 Framework group  C1[X(C4H4O)]
 Deg. of freedom    21
 Full point group                 C1      NOp   1
 RotChk:  IX=0 Diff= 3.45D-01
 Largest Abelian subgroup         C1      NOp   1
 Largest concise Abelian subgroup C1      NOp   1
                         Standard orientation:                         
 ---------------------------------------------------------------------
 Center     Atomic      Atomic             Coordinates (Angstroms)
 Number     Number       Type             X           Y           Z
 ---------------------------------------------------------------------
      1          6           0       -0.609908    1.036579    0.006779
      2          6           0       -1.131711   -0.228670   -0.019026
      3          8           0       -0.123390   -1.167778    0.022416
      4          6           0        1.049626   -0.464619   -0.009009
      5          6           0        0.817789    0.888485   -0.007468
      6          1           0        1.550799    1.669205    0.011652
      7          1           0        1.952737   -1.038822   -0.021919
      8          1           0       -2.117417   -0.641966   -0.041141
      9          1           0       -1.153773    1.963159    0.044425
 ---------------------------------------------------------------------
 Rotational constants (GHZ):      9.4614481      9.0880820      4.6370741
 Leave Link  202 at Mon Mar 21 09:26:08 2016, MaxMem=    33554432 cpu:         0.0
 (Enter /opt/g09/g09/l301.exe)

 Semi-emprical parameters in input format:
 Method=8 CoreType=1 PeptideFC=0.0112525115 RIJScale=0.5291772086
 ****
 H       
 PQN=1 NValence=1 F0ss=0.4721553327 ZetaOverlap=1.1938233316 U=-0.4188110042
 Beta=-0.2217019066 CoreKO=1.0589197790 KON=0,0,0,1.0589197790 KON=1,0,1,1.1388116636
 KON=0,1,1,0.9232127001 KON=2,1,1,1.0589197790 EISol=-0.4188110042 EHeat=0.0830298228
 Alpha=1.5252601686
 GCore=0.0085899062,1.3393394938,2.2676713595
 GCore=0.0003534810,1.4998112861,3.3718189601
 GCore=-0.0012733648,0.5600570362,3.5719006330
 ****
 C       
 PQN=2,2 NValence=4 F0ss=0.4524288975 F0sp=0.4522095404 F0pp=0.3739486843 F2pp=0.1893151862
 G1sp=0.2569901150
 ZetaOverlap=1.8086650000,1.6851160000
 U=-1.8899642094,-1.4597967663
 Beta=-0.5515723134,-0.2836784428 DDN=0,1,0.8473594566 DDN=1,1,0.7116835943
 CoreKO=1.1895484724 KON=0,0,0,1.1124284736 KON=1,0,1,0.8219701441 KON=0,1,1,1.0730801600
 KON=2,1,1,0.8240378188 EISol=-4.4398989268 EHeat=0.2723305520 Alpha=1.4014062429
 DipHyp=1.6946214145
 GCore=0.0008062681,1.4001425905,2.6974644940
 GCore=0.0034083223,1.4001425905,3.3368976248
 GCore=-0.0013693412,1.3567830806,3.8739385724
 GCore=-0.0000875022,1.5041662649,5.0077742521
 ****
 O       
 PQN=2,2 NValence=6 F0ss=0.5666745976 F0sp=0.5321302318 F0pp=0.4958708974 F2pp=0.2358081713
 G1sp=0.4343770262
 ZetaOverlap=3.0424090325,2.5240390000
 U=-3.5951865036,-2.8760896690
 Beta=-1.0757546603,-1.0757546603 DDN=0,1,0.5460718876 DDN=1,1,0.4852322000
 CoreKO=0.8822957477 KON=0,0,0,0.9198521378 KON=1,0,1,0.5019543089 KON=0,1,1,0.9401631592
 KON=2,1,1,0.5556751753 EISol=-11.6164441184 EHeat=0.0949133088 Alpha=2.5926110419
 DipHyp=1.0920809432
 GCore=0.0196357516,1.2725255633,1.6023328031
 GCore=0.0053190216,1.9601996266,2.7307884326
 ****
 
 Standard basis: VSTO-6G (5D, 7F)
 Ernie: Thresh=  0.10000D-02 Tol=  0.10000D-05 Strict=F.
  NNHCO=     0 NNPyr=     0 NCTC=     0               EPep=         0.000000000
    EC=        67.494689652  ECS=         1.740502867   EG=         0.383501331
   EHC=         0.000000000  EAt=       -31.051283842  AtH=         1.516354808
 EPDDG=         0.000000000  ECC=        69.618693850 EAtT=        32.567638650
 There are    24 symmetry adapted cartesian basis functions of A   symmetry.
 There are    24 symmetry adapted basis functions of A   symmetry.
    24 basis functions,   144 primitive gaussians,    24 cartesian basis functions
    13 alpha electrons       13 beta electrons
       nuclear repulsion energy       102.1863325002 Hartrees.
 IExCor=    0 DFT=F Ex=HF Corr=None ExCW=0 ScaHFX=  1.000000
 ScaDFX=  1.000000  1.000000  1.000000  1.000000 ScalE2=  1.000000  1.000000
 IRadAn=      0 IRanWt=     -1 IRanGd=            0 ICorTp=0 IEmpDi=  4
 Integral buffers will be    131072 words long.
 Regular integral format.
 Two-electron integral symmetry is turned off.
 Leave Link  301 at Mon Mar 21 09:26:08 2016, MaxMem=    33554432 cpu:         0.0
 (Enter /opt/g09/g09/l302.exe)
 Do NDO integrals.
 NPDir=0 NMtPBC=     1 NCelOv=     1 NCel=       1 NClECP=     1 NCelD=      1
         NCelK=      1 NCelE2=     1 NClLst=     1 CellRange=     0.0.
 One-electron integrals computed using PRISM.
 NBasis=    24 RedAO= F EigKep=  0.00D+00  NBF=    24
 NBsUse=    24 1.00D-04 EigRej=  0.00D+00 NBFU=    24
 Leave Link  302 at Mon Mar 21 09:26:08 2016, MaxMem=    33554432 cpu:         0.0
 (Enter /opt/g09/g09/l303.exe)
 DipDrv:  MaxL=1.
 Leave Link  303 at Mon Mar 21 09:26:08 2016, MaxMem=    33554432 cpu:         0.0
 (Enter /opt/g09/g09/l401.exe)
 Initial guess from the checkpoint file:  "/opt/g09/scratch/Gau-11093.chk"
 B after Tr=     0.000000    0.000000    0.000000
         Rot=    0.992609    0.000008   -0.000011    0.121359 Ang=  13.94 deg.
 Guess basis will be translated and rotated to current coordinates.
 JPrj=0 DoOrth=T DoCkMO=T.
 Leave Link  401 at Mon Mar 21 09:26:08 2016, MaxMem=    33554432 cpu:         0.0
 (Enter /opt/g09/g09/l502.exe)
 Closed shell SCF:
 Using DIIS extrapolation, IDIIS=  1040.
 Overlap will be assumed to be unity.
 Two-electron integral symmetry not used.
 Keep J ints in memory in canonical form, NReq=888082.
 IVT=       79475 IEndB=       79475 NGot=    33554432 MDV=    33473473
 LenX=    33473473 LenY=    33472456
 Requested convergence on RMS density matrix=1.00D-08 within 128 cycles.
 Requested convergence on MAX density matrix=1.00D-06.
 Requested convergence on             energy=1.00D-06.
 No special actions if energy rises.
 FoFCou: FMM=F IPFlag=           0 FMFlag=           0 FMFlg1=           0
         NFxFlg=           0 DoJE=F BraDBF=F KetDBF=F FulRan=T
         wScrn=  0.000000 ICntrl=     600 IOpCl=  2 I1Cent=           0 NGrid=           0
         NMat0=    1 NMatS0=     54 NMatT0=    0 NMatD0=    1 NMtDS0=    0 NMtDT0=    0
 Symmetry not used in FoFCou.

 Cycle   1  Pass 1  IDiag  1:
 E= 0.566393066179288    
 DIIS: error= 1.13D-02 at cycle   1 NSaved=   1.
 NSaved= 1 IEnMin= 1 EnMin= 0.566393066179288     IErMin= 1 ErrMin= 1.13D-02
 ErrMax= 1.13D-02  0.00D+00 EMaxC= 1.00D-01 BMatC= 3.79D-03 BMatP= 3.79D-03
 IDIUse=3 WtCom= 8.87D-01 WtEn= 1.13D-01
 Coeff-Com:  0.100D+01
 Coeff-En:   0.100D+01
 Coeff:      0.100D+01
 GapD=    2.000 DampG=2.000 DampE=0.500 DampFc=1.0000 IDamp=-1.
 RMSDP=4.49D-03 MaxDP=2.17D-02              OVMax= 0.00D+00

 Cycle   2  Pass 1  IDiag  3:
 E= 0.553950054252070     Delta-E=       -0.012443011927 Rises=F Damp=F
 DIIS: error= 5.14D-03 at cycle   2 NSaved=   2.
 NSaved= 2 IEnMin= 2 EnMin= 0.553950054252070     IErMin= 2 ErrMin= 5.14D-03
 ErrMax= 5.14D-03  0.00D+00 EMaxC= 1.00D-01 BMatC= 5.86D-04 BMatP= 3.79D-03
 IDIUse=3 WtCom= 9.49D-01 WtEn= 5.14D-02
 Coeff-Com: -0.504D+00 0.150D+01
 Coeff-En:   0.000D+00 0.100D+01
 Coeff:     -0.478D+00 0.148D+01
 Gap=     0.376 Goal=   None    Shift=    0.000
 RMSDP=3.14D-03 MaxDP=1.49D-02 DE=-1.24D-02 OVMax= 2.78D-02

 Cycle   3  Pass 1  IDiag  3:
 E= 0.550851711446327     Delta-E=       -0.003098342806 Rises=F Damp=F
 DIIS: error= 1.20D-03 at cycle   3 NSaved=   3.
 NSaved= 3 IEnMin= 3 EnMin= 0.550851711446327     IErMin= 3 ErrMin= 1.20D-03
 ErrMax= 1.20D-03  0.00D+00 EMaxC= 1.00D-01 BMatC= 3.88D-05 BMatP= 5.86D-04
 IDIUse=3 WtCom= 9.88D-01 WtEn= 1.20D-02
 Coeff-Com:  0.247D+00-0.921D+00 0.167D+01
 Coeff-En:   0.000D+00 0.000D+00 0.100D+01
 Coeff:      0.244D+00-0.910D+00 0.167D+01
 Gap=     0.376 Goal=   None    Shift=    0.000
 RMSDP=1.17D-03 MaxDP=7.02D-03 DE=-3.10D-03 OVMax= 9.88D-03

 Cycle   4  Pass 1  IDiag  3:
 E= 0.550584209377831     Delta-E=       -0.000267502068 Rises=F Damp=F
 DIIS: error= 1.65D-04 at cycle   4 NSaved=   4.
 NSaved= 4 IEnMin= 4 EnMin= 0.550584209377831     IErMin= 4 ErrMin= 1.65D-04
 ErrMax= 1.65D-04  0.00D+00 EMaxC= 1.00D-01 BMatC= 1.08D-06 BMatP= 3.88D-05
 IDIUse=3 WtCom= 9.98D-01 WtEn= 1.65D-03
 Coeff-Com: -0.669D-01 0.264D+00-0.574D+00 0.138D+01
 Coeff-En:   0.000D+00 0.000D+00 0.000D+00 0.100D+01
 Coeff:     -0.668D-01 0.264D+00-0.573D+00 0.138D+01
 Gap=     0.376 Goal=   None    Shift=    0.000
 RMSDP=1.74D-04 MaxDP=1.18D-03 DE=-2.68D-04 OVMax= 2.14D-03

 Cycle   5  Pass 1  IDiag  3:
 E= 0.550576835245707     Delta-E=       -0.000007374132 Rises=F Damp=F
 DIIS: error= 5.29D-05 at cycle   5 NSaved=   5.
 NSaved= 5 IEnMin= 5 EnMin= 0.550576835245707     IErMin= 5 ErrMin= 5.29D-05
 ErrMax= 5.29D-05  0.00D+00 EMaxC= 1.00D-01 BMatC= 9.05D-08 BMatP= 1.08D-06
 IDIUse=1 WtCom= 1.00D+00 WtEn= 0.00D+00
 Coeff-Com: -0.990D-02 0.351D-01-0.484D-01-0.289D+00 0.131D+01
 Coeff:     -0.990D-02 0.351D-01-0.484D-01-0.289D+00 0.131D+01
 Gap=     0.376 Goal=   None    Shift=    0.000
 RMSDP=5.93D-05 MaxDP=3.97D-04 DE=-7.37D-06 OVMax= 7.31D-04

 Cycle   6  Pass 1  IDiag  3:
 E= 0.550576163843516     Delta-E=       -0.000000671402 Rises=F Damp=F
 DIIS: error= 8.60D-06 at cycle   6 NSaved=   6.
 NSaved= 6 IEnMin= 6 EnMin= 0.550576163843516     IErMin= 6 ErrMin= 8.60D-06
 ErrMax= 8.60D-06  0.00D+00 EMaxC= 1.00D-01 BMatC= 4.78D-09 BMatP= 9.05D-08
 IDIUse=1 WtCom= 1.00D+00 WtEn= 0.00D+00
 Coeff-Com:  0.688D-02-0.254D-01 0.429D-01 0.692D-01-0.568D+00 0.147D+01
 Coeff:      0.688D-02-0.254D-01 0.429D-01 0.692D-01-0.568D+00 0.147D+01
 Gap=     0.376 Goal=   None    Shift=    0.000
 RMSDP=1.27D-05 MaxDP=7.94D-05 DE=-6.71D-07 OVMax= 1.15D-04

 Cycle   7  Pass 1  IDiag  3:
 E= 0.550576129922234     Delta-E=       -0.000000033921 Rises=F Damp=F
 DIIS: error= 2.64D-06 at cycle   7 NSaved=   7.
 NSaved= 7 IEnMin= 7 EnMin= 0.550576129922234     IErMin= 7 ErrMin= 2.64D-06
 ErrMax= 2.64D-06  0.00D+00 EMaxC= 1.00D-01 BMatC= 3.14D-10 BMatP= 4.78D-09
 IDIUse=1 WtCom= 1.00D+00 WtEn= 0.00D+00
 Coeff-Com: -0.298D-02 0.110D-01-0.187D-01-0.304D-01 0.256D+00-0.802D+00
 Coeff-Com:  0.159D+01
 Coeff:     -0.298D-02 0.110D-01-0.187D-01-0.304D-01 0.256D+00-0.802D+00
 Coeff:      0.159D+01
 Gap=     0.376 Goal=   None    Shift=    0.000
 RMSDP=3.57D-06 MaxDP=2.03D-05 DE=-3.39D-08 OVMax= 2.53D-05

 Cycle   8  Pass 1  IDiag  3:
 E= 0.550576127475509     Delta-E=       -0.000000002447 Rises=F Damp=F
 DIIS: error= 8.24D-07 at cycle   8 NSaved=   8.
 NSaved= 8 IEnMin= 8 EnMin= 0.550576127475509     IErMin= 8 ErrMin= 8.24D-07
 ErrMax= 8.24D-07  0.00D+00 EMaxC= 1.00D-01 BMatC= 1.77D-11 BMatP= 3.14D-10
 IDIUse=1 WtCom= 1.00D+00 WtEn= 0.00D+00
 Coeff-Com:  0.101D-02-0.373D-02 0.622D-02 0.126D-01-0.962D-01 0.304D+00
 Coeff-Com: -0.747D+00 0.152D+01
 Coeff:      0.101D-02-0.373D-02 0.622D-02 0.126D-01-0.962D-01 0.304D+00
 Coeff:     -0.747D+00 0.152D+01
 Gap=     0.376 Goal=   None    Shift=    0.000
 RMSDP=9.41D-07 MaxDP=7.07D-06 DE=-2.45D-09 OVMax= 9.69D-06

 Cycle   9  Pass 1  IDiag  3:
 E= 0.550576127320525     Delta-E=       -0.000000000155 Rises=F Damp=F
 DIIS: error= 2.56D-07 at cycle   9 NSaved=   9.
 NSaved= 9 IEnMin= 9 EnMin= 0.550576127320525     IErMin= 9 ErrMin= 2.56D-07
 ErrMax= 2.56D-07  0.00D+00 EMaxC= 1.00D-01 BMatC= 1.38D-12 BMatP= 1.77D-11
 IDIUse=1 WtCom= 1.00D+00 WtEn= 0.00D+00
 Coeff-Com: -0.165D-03 0.598D-03-0.886D-03-0.446D-02 0.257D-01-0.765D-01
 Coeff-Com:  0.208D+00-0.633D+00 0.148D+01
 Coeff:     -0.165D-03 0.598D-03-0.886D-03-0.446D-02 0.257D-01-0.765D-01
 Coeff:      0.208D+00-0.633D+00 0.148D+01
 Gap=     0.376 Goal=   None    Shift=    0.000
 RMSDP=2.58D-07 MaxDP=2.23D-06 DE=-1.55D-10 OVMax= 2.84D-06

 Cycle  10  Pass 1  IDiag  3:
 E= 0.550576127308275     Delta-E=       -0.000000000012 Rises=F Damp=F
 DIIS: error= 7.55D-08 at cycle  10 NSaved=  10.
 NSaved=10 IEnMin=10 EnMin= 0.550576127308275     IErMin=10 ErrMin= 7.55D-08
 ErrMax= 7.55D-08  0.00D+00 EMaxC= 1.00D-01 BMatC= 1.30D-13 BMatP= 1.38D-12
 IDIUse=1 WtCom= 1.00D+00 WtEn= 0.00D+00
 Coeff-Com:  0.253D-04-0.867D-04 0.732D-04 0.184D-02-0.880D-02 0.243D-01
 Coeff-Com: -0.691D-01 0.254D+00-0.863D+00 0.166D+01
 Coeff:      0.253D-04-0.867D-04 0.732D-04 0.184D-02-0.880D-02 0.243D-01
 Coeff:     -0.691D-01 0.254D+00-0.863D+00 0.166D+01
 Gap=     0.376 Goal=   None    Shift=    0.000
 RMSDP=9.24D-08 MaxDP=7.95D-07 DE=-1.22D-11 OVMax= 1.09D-06

 Cycle  11  Pass 1  IDiag  3:
 E= 0.550576127307096     Delta-E=       -0.000000000001 Rises=F Damp=F
 DIIS: error= 1.53D-08 at cycle  11 NSaved=  11.
 NSaved=11 IEnMin=11 EnMin= 0.550576127307096     IErMin=11 ErrMin= 1.53D-08
 ErrMax= 1.53D-08  0.00D+00 EMaxC= 1.00D-01 BMatC= 8.14D-15 BMatP= 1.30D-13
 IDIUse=1 WtCom= 1.00D+00 WtEn= 0.00D+00
 Coeff-Com: -0.275D-06-0.213D-05 0.393D-04-0.782D-03 0.332D-02-0.865D-02
 Coeff-Com:  0.251D-01-0.100D+00 0.386D+00-0.951D+00 0.165D+01
 Coeff:     -0.275D-06-0.213D-05 0.393D-04-0.782D-03 0.332D-02-0.865D-02
 Coeff:      0.251D-01-0.100D+00 0.386D+00-0.951D+00 0.165D+01
 Gap=     0.376 Goal=   None    Shift=    0.000
 RMSDP=2.26D-08 MaxDP=1.70D-07 DE=-1.18D-12 OVMax= 2.18D-07

 Cycle  12  Pass 1  IDiag  3:
 E= 0.550576127307323     Delta-E=        0.000000000000 Rises=F Damp=F
 DIIS: error= 1.98D-09 at cycle  12 NSaved=  12.
 NSaved=12 IEnMin=11 EnMin= 0.550576127307096     IErMin=12 ErrMin= 1.98D-09
 ErrMax= 1.98D-09  0.00D+00 EMaxC= 1.00D-01 BMatC= 2.11D-16 BMatP= 8.14D-15
 IDIUse=1 WtCom= 1.00D+00 WtEn= 0.00D+00
 Coeff-Com: -0.686D-06 0.371D-05-0.194D-04 0.279D-03-0.115D-02 0.295D-02
 Coeff-Com: -0.860D-02 0.354D-01-0.140D+00 0.359D+00-0.724D+00 0.148D+01
 Coeff:     -0.686D-06 0.371D-05-0.194D-04 0.279D-03-0.115D-02 0.295D-02
 Coeff:     -0.860D-02 0.354D-01-0.140D+00 0.359D+00-0.724D+00 0.148D+01
 Gap=     0.376 Goal=   None    Shift=    0.000
 RMSDP=2.81D-09 MaxDP=1.57D-08 DE= 2.27D-13 OVMax= 2.09D-08

 Cycle  13  Pass 2  IDiag  1:
 SCF Done:  E(RAM1) =  0.550576127307     A.U. after   13 cycles
            NFock= 12  Conv=0.28D-08     -V/T= 1.0358
 KE=-1.538034886293D+01 PE=-1.704592572488D+02 EE= 8.420384973884D+01
 Leave Link  502 at Mon Mar 21 09:26:08 2016, MaxMem=    33554432 cpu:         0.0
 (Enter /opt/g09/g09/l701.exe)
 Compute integral first derivatives.
 ... and contract with generalized density number  0.
 Leave Link  701 at Mon Mar 21 09:26:09 2016, MaxMem=    33554432 cpu:         0.0
 (Enter /opt/g09/g09/l702.exe)
 L702 exits ... SP integral derivatives will be done elsewhere.
 Leave Link  702 at Mon Mar 21 09:26:09 2016, MaxMem=    33554432 cpu:         0.0
 (Enter /opt/g09/g09/l703.exe)
 Compute integral first derivatives, UseDBF=F ICtDFT=           0.
 Integral derivatives from FoFJK, PRISM(SPDF).
 Calling FoFJK, ICntrl=      2127 FMM=F ISym2X=0 I1Cent= 0 IOpClX= 0 NMat=1 NMatS=1 NMatT=0.
 FoFJK:  IHMeth= 8 ICntrl=    2127 DoSepK=F KAlg= 0 I1Cent=   0 FoldK=F
 IRaf=         0 NMat=   1 IRICut=       1 DoRegI=T DoRafI=F ISym2E= 0.
 FoFCou: FMM=F IPFlag=           0 FMFlag=      100000 FMFlg1=         800
         NFxFlg=           0 DoJE=F BraDBF=F KetDBF=F FulRan=T
         wScrn=  0.000000 ICntrl=    2127 IOpCl=  0 I1Cent=           0 NGrid=           0
         NMat0=    1 NMatS0=      1 NMatT0=    0 NMatD0=    1 NMtDS0=    0 NMtDT0=    0
 Symmetry not used in FoFCou.
 Leave Link  703 at Mon Mar 21 09:26:09 2016, MaxMem=    33554432 cpu:         0.0
 (Enter /opt/g09/g09/l716.exe)
 Dipole        = 3.39968298D-02 2.89433064D-01 2.98025692D-03
 ***** Axes restored to original set *****
 -------------------------------------------------------------------
 Center     Atomic                   Forces (Hartrees/Bohr)
 Number     Number              X              Y              Z
 -------------------------------------------------------------------
      1        6          -0.004971553   -0.004019429    0.002066565
      2        6           0.000646433    0.008887023   -0.006243210
      3        8           0.008833373   -0.002735856    0.007306276
      4        6           0.008772695    0.000407200   -0.002164103
      5        6          -0.013557212   -0.000589518   -0.003203822
      6        1           0.000984203   -0.001634557    0.001289613
      7        1          -0.001398385   -0.000878648   -0.000445767
      8        1           0.001926342   -0.001657910   -0.000314821
      9        1          -0.001235896    0.002221695    0.001709269
 -------------------------------------------------------------------
 Cartesian Forces:  Max     0.013557212 RMS     0.004725052
 Leave Link  716 at Mon Mar 21 09:26:09 2016, MaxMem=    33554432 cpu:         0.0
 (Enter /opt/g09/g09/l103.exe)

 GradGradGradGradGradGradGradGradGradGradGradGradGradGradGradGradGradGrad
 Berny optimization.
 Using GEDIIS/GDIIS optimizer.
 FormGI is forming the generalized inverse of G from B-inverse, IUseBI=4.
 Internal  Forces:  Max     0.010166213 RMS     0.002958293
 Search for a local minimum.
 Step number   2 out of a maximum of   48
 All quantities printed in internal units (Hartrees-Bohrs-Radians)
 RMS Force = .29583D-02 SwitMx=.10000D-02 MixMth= 1
 Mixed Optimization -- RFO/linear search
 Update second derivatives using D2CorX and points    1    2
 DE= -4.49D-03 DEPred=-7.00D-03 R= 6.41D-01
 TightC=F SS=  1.41D+00  RLast= 4.33D-01 DXNew= 5.0454D-01 1.2979D+00
 Trust test= 6.41D-01 RLast= 4.33D-01 DXMaxT set to 5.05D-01
 ITU=  1  0
 Use linear search instead of GDIIS.
     Eigenvalues ---    0.02020   0.02178   0.02344   0.02355   0.02674
     Eigenvalues ---    0.03952   0.15186   0.15988   0.15998   0.16100
     Eigenvalues ---    0.21989   0.23384   0.32104   0.35372   0.36349
     Eigenvalues ---    0.37759   0.39880   0.43003   0.47920   0.51650
     Eigenvalues ---    0.59924
 RFO step:  Lambda=-9.43828892D-04 EMin= 2.02039846D-02
 Quartic linear search produced a step of -0.18208.
 Iteration  1 RMS(Cart)=  0.01747259 RMS(Int)=  0.00053074
 Iteration  2 RMS(Cart)=  0.00038645 RMS(Int)=  0.00033980
 Iteration  3 RMS(Cart)=  0.00000010 RMS(Int)=  0.00033980
 ITry= 1 IFail=0 DXMaxC= 6.21D-02 DCOld= 1.00D+10 DXMaxT= 5.05D-01 DXLimC= 3.00D+00 Rises=F
 Variable       Old X    -DE/DX   Delta X   Delta X   Delta X     New X
                                 (Linear)    (Quad)   (Total)
    R1        2.58679  -0.00887  -0.01044   0.00393  -0.00653   2.58025
    R2        2.71257  -0.00197  -0.00448   0.00326  -0.00131   2.71126
    R3        2.03157  -0.00236   0.00301  -0.01024  -0.00722   2.02435
    R4        2.60505  -0.00627   0.00042  -0.01106  -0.01057   2.59448
    R5        2.02026   0.00053   0.01062  -0.01570  -0.00508   2.01518
    R6        2.58512  -0.00270  -0.00801   0.00893   0.00100   2.58612
    R7        2.59426  -0.01017   0.00298  -0.02166  -0.01870   2.57555
    R8        2.02252  -0.00017  -0.00159   0.00217   0.00059   2.02311
    R9        2.02403  -0.00020   0.00196  -0.00358  -0.00163   2.02240
    A1        1.85833  -0.00067   0.00136  -0.00543  -0.00360   1.85474
    A2        2.21989   0.00144  -0.00658   0.01691   0.01066   2.23055
    A3        2.20488  -0.00078   0.00380  -0.01119  -0.00705   2.19783
    A4        1.92867  -0.00079  -0.00156  -0.00119  -0.00216   1.92651
    A5        2.35914  -0.00207   0.00063  -0.01276  -0.01188   2.34726
    A6        1.99508   0.00292  -0.00054   0.01440   0.01409   2.00917
    A7        1.85078   0.00257   0.00245   0.00468   0.00761   1.85840
    A8        1.94099  -0.00324  -0.00439  -0.00495  -0.00851   1.93248
    A9        2.03539  -0.00006   0.00355  -0.00958  -0.00556   2.02983
   A10        2.30677   0.00330  -0.00078   0.01442   0.01410   2.32087
   A11        1.84384   0.00232   0.00030   0.00859   0.00876   1.85260
   A12        2.22095  -0.00307   0.00310  -0.01880  -0.01597   2.20497
   A13        2.21792   0.00079  -0.00340   0.01136   0.00768   2.22559
    D1        0.05509  -0.00275  -0.03187  -0.02884  -0.06075  -0.00566
    D2       -3.11528  -0.00011   0.00105  -0.00687  -0.00636  -3.12164
    D3       -3.07277  -0.00231  -0.01142  -0.05105  -0.06196  -3.13472
    D4        0.04004   0.00033   0.02150  -0.02908  -0.00756   0.03248
    D5       -0.02421   0.00132   0.01199   0.02185   0.03368   0.00947
    D6       -3.13421   0.00014   0.01213  -0.01658  -0.00437  -3.13858
    D7        3.10380   0.00092  -0.00922   0.04410   0.03504   3.13884
    D8       -0.00620  -0.00027  -0.00907   0.00567  -0.00302  -0.00922
    D9       -0.06396   0.00292   0.03963   0.02410   0.06360  -0.00036
   D10        3.09990   0.00095   0.01430   0.00753   0.02115   3.12106
   D11        0.04803  -0.00210  -0.03148  -0.00952  -0.04131   0.00672
   D12       -3.10171  -0.00107  -0.00701  -0.02207  -0.02957  -3.13128
   D13       -0.01509   0.00052   0.01244  -0.00738   0.00501  -0.01007
   D14        3.09499   0.00161   0.01246   0.03023   0.04310   3.13808
   D15        3.13633  -0.00070  -0.01672   0.00793  -0.00922   3.12711
   D16       -0.03679   0.00040  -0.01671   0.04555   0.02887  -0.00792
         Item               Value     Threshold  Converged?
 Maximum Force            0.010166     0.000450     NO 
 RMS     Force            0.002958     0.000300     NO 
 Maximum Displacement     0.062080     0.001800     NO 
 RMS     Displacement     0.017473     0.001200     NO 
 Predicted change in Energy=-6.885902D-04
 Lowest energy point so far.  Saving SCF results.
 GradGradGradGradGradGradGradGradGradGradGradGradGradGradGradGradGradGrad

 Leave Link  103 at Mon Mar 21 09:26:09 2016, MaxMem=    33554432 cpu:         0.0
 (Enter /opt/g09/g09/l202.exe)
                          Input orientation:                          
 ---------------------------------------------------------------------
 Center     Atomic      Atomic             Coordinates (Angstroms)
 Number     Number       Type             X           Y           Z
 ---------------------------------------------------------------------
      1          6           0        0.959201   -0.713572   -0.029935
      2          6           0       -0.350197   -1.100142   -0.049524
      3          8           0       -1.173343   -0.001389   -0.038074
      4          6           0       -0.355873    1.095789   -0.010215
      5          6           0        0.954520    0.721049   -0.012368
      6          1           0        1.814535    1.357838    0.002606
      7          1           0       -0.842237    2.049262    0.011906
      8          1           0       -0.851556   -2.041318   -0.051588
      9          1           0        1.828707   -1.339224   -0.038370
 ---------------------------------------------------------------------
                    Distance matrix (angstroms):
                    1          2          3          4          5
     1  C    0.000000
     2  C    1.365410   0.000000
     3  O    2.248337   1.372938   0.000000
     4  C    2.236872   2.196289   1.368514   0.000000
     5  C    1.434736   2.240625   2.247305   1.362925   0.000000
     6  H    2.241293   3.275736   3.282768   2.186208   1.070210
     7  H    3.298512   3.188200   2.077811   1.070584   2.234518
     8  H    2.245489   1.066386   2.065198   3.176295   3.300624
     9  H    1.071238   2.192010   3.286656   3.271462   2.238214
                    6          7          8          9
     6  H    0.000000
     7  H    2.745285   0.000000
     8  H    4.320329   4.091084   0.000000
     9  H    2.697410   4.314893   2.770725   0.000000
 Stoichiometry    C4H4O
 Framework group  C1[X(C4H4O)]
 Deg. of freedom    21
 Full point group                 C1      NOp   1
 RotChk:  IX=2 Diff= 9.60D-02
 Largest Abelian subgroup         C1      NOp   1
 Largest concise Abelian subgroup C1      NOp   1
                         Standard orientation:                         
 ---------------------------------------------------------------------
 Center     Atomic      Atomic             Coordinates (Angstroms)
 Number     Number       Type             X           Y           Z
 ---------------------------------------------------------------------
      1          6           0       -0.680136    0.989065   -0.002818
      2          6           0       -1.112740   -0.305993    0.002199
      3          8           0       -0.043547   -1.167261    0.002969
      4          6           0        1.081983   -0.388808   -0.002155
      5          6           0        0.753531    0.933940    0.002444
      6          1           0        1.420303    1.771057    0.003141
      7          1           0        2.018011   -0.908327   -0.012205
      8          1           0       -2.070862   -0.773881   -0.013952
      9          1           0       -1.274905    1.880010    0.001232
 ---------------------------------------------------------------------
 Rotational constants (GHZ):      9.4653466      9.1808529      4.6605298
 Leave Link  202 at Mon Mar 21 09:26:09 2016, MaxMem=    33554432 cpu:         0.0
 (Enter /opt/g09/g09/l301.exe)

 Semi-emprical parameters in input format:
 Method=8 CoreType=1 PeptideFC=0.0112525115 RIJScale=0.5291772086
 ****
 H       
 PQN=1 NValence=1 F0ss=0.4721553327 ZetaOverlap=1.1938233316 U=-0.4188110042
 Beta=-0.2217019066 CoreKO=1.0589197790 KON=0,0,0,1.0589197790 KON=1,0,1,1.1388116636
 KON=0,1,1,0.9232127001 KON=2,1,1,1.0589197790 EISol=-0.4188110042 EHeat=0.0830298228
 Alpha=1.5252601686
 GCore=0.0085899062,1.3393394938,2.2676713595
 GCore=0.0003534810,1.4998112861,3.3718189601
 GCore=-0.0012733648,0.5600570362,3.5719006330
 ****
 C       
 PQN=2,2 NValence=4 F0ss=0.4524288975 F0sp=0.4522095404 F0pp=0.3739486843 F2pp=0.1893151862
 G1sp=0.2569901150
 ZetaOverlap=1.8086650000,1.6851160000
 U=-1.8899642094,-1.4597967663
 Beta=-0.5515723134,-0.2836784428 DDN=0,1,0.8473594566 DDN=1,1,0.7116835943
 CoreKO=1.1895484724 KON=0,0,0,1.1124284736 KON=1,0,1,0.8219701441 KON=0,1,1,1.0730801600
 KON=2,1,1,0.8240378188 EISol=-4.4398989268 EHeat=0.2723305520 Alpha=1.4014062429
 DipHyp=1.6946214145
 GCore=0.0008062681,1.4001425905,2.6974644940
 GCore=0.0034083223,1.4001425905,3.3368976248
 GCore=-0.0013693412,1.3567830806,3.8739385724
 GCore=-0.0000875022,1.5041662649,5.0077742521
 ****
 O       
 PQN=2,2 NValence=6 F0ss=0.5666745976 F0sp=0.5321302318 F0pp=0.4958708974 F2pp=0.2358081713
 G1sp=0.4343770262
 ZetaOverlap=3.0424090325,2.5240390000
 U=-3.5951865036,-2.8760896690
 Beta=-1.0757546603,-1.0757546603 DDN=0,1,0.5460718876 DDN=1,1,0.4852322000
 CoreKO=0.8822957477 KON=0,0,0,0.9198521378 KON=1,0,1,0.5019543089 KON=0,1,1,0.9401631592
 KON=2,1,1,0.5556751753 EISol=-11.6164441184 EHeat=0.0949133088 Alpha=2.5926110419
 DipHyp=1.0920809432
 GCore=0.0196357516,1.2725255633,1.6023328031
 GCore=0.0053190216,1.9601996266,2.7307884326
 ****
 
 Standard basis: VSTO-6G (5D, 7F)
 Ernie: Thresh=  0.10000D-02 Tol=  0.10000D-05 Strict=F.
  NNHCO=     0 NNPyr=     0 NCTC=     0               EPep=         0.000000000
    EC=        67.610799822  ECS=         1.758707684   EG=         0.384631731
   EHC=         0.000000000  EAt=       -31.051283842  AtH=         1.516354808
 EPDDG=         0.000000000  ECC=        69.754139237 EAtT=        32.567638650
 There are    24 symmetry adapted cartesian basis functions of A   symmetry.
 There are    24 symmetry adapted basis functions of A   symmetry.
    24 basis functions,   144 primitive gaussians,    24 cartesian basis functions
    13 alpha electrons       13 beta electrons
       nuclear repulsion energy       102.3217778872 Hartrees.
 IExCor=    0 DFT=F Ex=HF Corr=None ExCW=0 ScaHFX=  1.000000
 ScaDFX=  1.000000  1.000000  1.000000  1.000000 ScalE2=  1.000000  1.000000
 IRadAn=      0 IRanWt=     -1 IRanGd=            0 ICorTp=0 IEmpDi=  4
 Integral buffers will be    131072 words long.
 Regular integral format.
 Two-electron integral symmetry is turned off.
 Leave Link  301 at Mon Mar 21 09:26:09 2016, MaxMem=    33554432 cpu:         0.0
 (Enter /opt/g09/g09/l302.exe)
 Do NDO integrals.
 NPDir=0 NMtPBC=     1 NCelOv=     1 NCel=       1 NClECP=     1 NCelD=      1
         NCelK=      1 NCelE2=     1 NClLst=     1 CellRange=     0.0.
 One-electron integrals computed using PRISM.
 NBasis=    24 RedAO= F EigKep=  0.00D+00  NBF=    24
 NBsUse=    24 1.00D-04 EigRej=  0.00D+00 NBFU=    24
 Leave Link  302 at Mon Mar 21 09:26:09 2016, MaxMem=    33554432 cpu:         0.0
 (Enter /opt/g09/g09/l303.exe)
 DipDrv:  MaxL=1.
 Leave Link  303 at Mon Mar 21 09:26:09 2016, MaxMem=    33554432 cpu:         0.0
 (Enter /opt/g09/g09/l401.exe)
 Initial guess from the checkpoint file:  "/opt/g09/scratch/Gau-11093.chk"
 B after Tr=     0.000000    0.000000    0.000000
         Rot=    0.999420    0.000013   -0.000003   -0.034053 Ang=   3.90 deg.
 Guess basis will be translated and rotated to current coordinates.
 JPrj=0 DoOrth=T DoCkMO=T.
 Leave Link  401 at Mon Mar 21 09:26:09 2016, MaxMem=    33554432 cpu:         0.0
 (Enter /opt/g09/g09/l502.exe)
 Closed shell SCF:
 Using DIIS extrapolation, IDIIS=  1040.
 Overlap will be assumed to be unity.
 Two-electron integral symmetry not used.
 Keep J ints in memory in canonical form, NReq=888082.
 IVT=       79475 IEndB=       79475 NGot=    33554432 MDV=    33473473
 LenX=    33473473 LenY=    33472456
 Requested convergence on RMS density matrix=1.00D-08 within 128 cycles.
 Requested convergence on MAX density matrix=1.00D-06.
 Requested convergence on             energy=1.00D-06.
 No special actions if energy rises.
 FoFCou: FMM=F IPFlag=           0 FMFlag=           0 FMFlg1=           0
         NFxFlg=           0 DoJE=F BraDBF=F KetDBF=F FulRan=T
         wScrn=  0.000000 ICntrl=     600 IOpCl=  2 I1Cent=           0 NGrid=           0
         NMat0=    1 NMatS0=     54 NMatT0=    0 NMatD0=    1 NMtDS0=    0 NMtDT0=    0
 Symmetry not used in FoFCou.

 Cycle   1  Pass 1  IDiag  1:
 E= 0.551432478720287    
 DIIS: error= 3.37D-03 at cycle   1 NSaved=   1.
 NSaved= 1 IEnMin= 1 EnMin= 0.551432478720287     IErMin= 1 ErrMin= 3.37D-03
 ErrMax= 3.37D-03  0.00D+00 EMaxC= 1.00D-01 BMatC= 3.63D-04 BMatP= 3.63D-04
 IDIUse=3 WtCom= 9.66D-01 WtEn= 3.37D-02
 Coeff-Com:  0.100D+01
 Coeff-En:   0.100D+01
 Coeff:      0.100D+01
 GapD=    2.000 DampG=2.000 DampE=1.000 DampFc=2.0000 IDamp=-1.
 RMSDP=1.43D-03 MaxDP=7.71D-03              OVMax= 0.00D+00

 Cycle   2  Pass 1  IDiag  3:
 E= 0.550197959465649     Delta-E=       -0.001234519255 Rises=F Damp=F
 DIIS: error= 1.54D-03 at cycle   2 NSaved=   2.
 NSaved= 2 IEnMin= 2 EnMin= 0.550197959465649     IErMin= 2 ErrMin= 1.54D-03
 ErrMax= 1.54D-03  0.00D+00 EMaxC= 1.00D-01 BMatC= 5.85D-05 BMatP= 3.63D-04
 IDIUse=3 WtCom= 9.85D-01 WtEn= 1.54D-02
 Coeff-Com: -0.534D+00 0.153D+01
 Coeff-En:   0.000D+00 0.100D+01
 Coeff:     -0.526D+00 0.153D+01
 Gap=     0.379 Goal=   None    Shift=    0.000
 RMSDP=1.03D-03 MaxDP=5.54D-03 DE=-1.23D-03 OVMax= 8.13D-03

 Cycle   3  Pass 1  IDiag  3:
 E= 0.549883471708327     Delta-E=       -0.000314487757 Rises=F Damp=F
 DIIS: error= 3.22D-04 at cycle   3 NSaved=   3.
 NSaved= 3 IEnMin= 3 EnMin= 0.549883471708327     IErMin= 3 ErrMin= 3.22D-04
 ErrMax= 3.22D-04  0.00D+00 EMaxC= 1.00D-01 BMatC= 3.25D-06 BMatP= 5.85D-05
 IDIUse=3 WtCom= 9.97D-01 WtEn= 3.22D-03
 Coeff-Com:  0.257D+00-0.895D+00 0.164D+01
 Coeff-En:   0.000D+00 0.000D+00 0.100D+01
 Coeff:      0.257D+00-0.892D+00 0.164D+01
 Gap=     0.379 Goal=   None    Shift=    0.000
 RMSDP=3.37D-04 MaxDP=2.04D-03 DE=-3.14D-04 OVMax= 3.07D-03

 Cycle   4  Pass 1  IDiag  3:
 E= 0.549861354956548     Delta-E=       -0.000022116752 Rises=F Damp=F
 DIIS: error= 5.15D-05 at cycle   4 NSaved=   4.
 NSaved= 4 IEnMin= 4 EnMin= 0.549861354956548     IErMin= 4 ErrMin= 5.15D-05
 ErrMax= 5.15D-05  0.00D+00 EMaxC= 1.00D-01 BMatC= 9.46D-08 BMatP= 3.25D-06
 IDIUse=1 WtCom= 1.00D+00 WtEn= 0.00D+00
 Coeff-Com: -0.137D+00 0.486D+00-0.975D+00 0.163D+01
 Coeff:     -0.137D+00 0.486D+00-0.975D+00 0.163D+01
 Gap=     0.379 Goal=   None    Shift=    0.000
 RMSDP=5.93D-05 MaxDP=4.29D-04 DE=-2.21D-05 OVMax= 7.37D-04

 Cycle   5  Pass 1  IDiag  3:
 E= 0.549860654507427     Delta-E=       -0.000000700449 Rises=F Damp=F
 DIIS: error= 1.05D-05 at cycle   5 NSaved=   5.
 NSaved= 5 IEnMin= 5 EnMin= 0.549860654507427     IErMin= 5 ErrMin= 1.05D-05
 ErrMax= 1.05D-05  0.00D+00 EMaxC= 1.00D-01 BMatC= 4.43D-09 BMatP= 9.46D-08
 IDIUse=1 WtCom= 1.00D+00 WtEn= 0.00D+00
 Coeff-Com:  0.349D-01-0.125D+00 0.257D+00-0.581D+00 0.141D+01
 Coeff:      0.349D-01-0.125D+00 0.257D+00-0.581D+00 0.141D+01
 Gap=     0.379 Goal=   None    Shift=    0.000
 RMSDP=1.29D-05 MaxDP=9.34D-05 DE=-7.00D-07 OVMax= 1.48D-04

 Cycle   6  Pass 1  IDiag  3:
 E= 0.549860622058233     Delta-E=       -0.000000032449 Rises=F Damp=F
 DIIS: error= 1.84D-06 at cycle   6 NSaved=   6.
 NSaved= 6 IEnMin= 6 EnMin= 0.549860622058233     IErMin= 6 ErrMin= 1.84D-06
 ErrMax= 1.84D-06  0.00D+00 EMaxC= 1.00D-01 BMatC= 2.37D-10 BMatP= 4.43D-09
 IDIUse=1 WtCom= 1.00D+00 WtEn= 0.00D+00
 Coeff-Com: -0.302D-02 0.110D-01-0.245D-01 0.860D-01-0.426D+00 0.136D+01
 Coeff:     -0.302D-02 0.110D-01-0.245D-01 0.860D-01-0.426D+00 0.136D+01
 Gap=     0.379 Goal=   None    Shift=    0.000
 RMSDP=2.72D-06 MaxDP=1.78D-05 DE=-3.24D-08 OVMax= 2.19D-05

 Cycle   7  Pass 1  IDiag  3:
 E= 0.549860620457025     Delta-E=       -0.000000001601 Rises=F Damp=F
 DIIS: error= 4.19D-07 at cycle   7 NSaved=   7.
 NSaved= 7 IEnMin= 7 EnMin= 0.549860620457025     IErMin= 7 ErrMin= 4.19D-07
 ErrMax= 4.19D-07  0.00D+00 EMaxC= 1.00D-01 BMatC= 1.67D-11 BMatP= 2.37D-10
 IDIUse=1 WtCom= 1.00D+00 WtEn= 0.00D+00
 Coeff-Com: -0.917D-03 0.314D-02-0.541D-02-0.471D-02 0.122D+00-0.644D+00
 Coeff-Com:  0.153D+01
 Coeff:     -0.917D-03 0.314D-02-0.541D-02-0.471D-02 0.122D+00-0.644D+00
 Coeff:      0.153D+01
 Gap=     0.379 Goal=   None    Shift=    0.000
 RMSDP=7.48D-07 MaxDP=3.77D-06 DE=-1.60D-09 OVMax= 4.95D-06

 Cycle   8  Pass 1  IDiag  3:
 E= 0.549860620341477     Delta-E=       -0.000000000116 Rises=F Damp=F
 DIIS: error= 1.17D-07 at cycle   8 NSaved=   8.
 NSaved= 8 IEnMin= 8 EnMin= 0.549860620341477     IErMin= 8 ErrMin= 1.17D-07
 ErrMax= 1.17D-07  0.00D+00 EMaxC= 1.00D-01 BMatC= 8.78D-13 BMatP= 1.67D-11
 IDIUse=1 WtCom= 1.00D+00 WtEn= 0.00D+00
 Coeff-Com:  0.703D-03-0.244D-02 0.449D-02-0.153D-02-0.506D-01 0.309D+00
 Coeff-Com: -0.878D+00 0.162D+01
 Coeff:      0.703D-03-0.244D-02 0.449D-02-0.153D-02-0.506D-01 0.309D+00
 Coeff:     -0.878D+00 0.162D+01
 Gap=     0.379 Goal=   None    Shift=    0.000
 RMSDP=1.93D-07 MaxDP=1.45D-06 DE=-1.16D-10 OVMax= 1.54D-06

 Cycle   9  Pass 1  IDiag  3:
 E= 0.549860620334613     Delta-E=       -0.000000000007 Rises=F Damp=F
 DIIS: error= 4.29D-08 at cycle   9 NSaved=   9.
 NSaved= 9 IEnMin= 9 EnMin= 0.549860620334613     IErMin= 9 ErrMin= 4.29D-08
 ErrMax= 4.29D-08  0.00D+00 EMaxC= 1.00D-01 BMatC= 4.99D-14 BMatP= 8.78D-13
 IDIUse=1 WtCom= 1.00D+00 WtEn= 0.00D+00
 Coeff-Com: -0.375D-03 0.131D-02-0.247D-02 0.193D-02 0.174D-01-0.121D+00
 Coeff-Com:  0.366D+00-0.834D+00 0.157D+01
 Coeff:     -0.375D-03 0.131D-02-0.247D-02 0.193D-02 0.174D-01-0.121D+00
 Coeff:      0.366D+00-0.834D+00 0.157D+01
 Gap=     0.379 Goal=   None    Shift=    0.000
 RMSDP=5.10D-08 MaxDP=5.13D-07 DE=-6.86D-12 OVMax= 5.30D-07

 Cycle  10  Pass 1  IDiag  3:
 E= 0.549860620334115     Delta-E=        0.000000000000 Rises=F Damp=F
 DIIS: error= 1.12D-08 at cycle  10 NSaved=  10.
 NSaved=10 IEnMin=10 EnMin= 0.549860620334115     IErMin=10 ErrMin= 1.12D-08
 ErrMax= 1.12D-08  0.00D+00 EMaxC= 1.00D-01 BMatC= 4.39D-15 BMatP= 4.99D-14
 IDIUse=1 WtCom= 1.00D+00 WtEn= 0.00D+00
 Coeff-Com:  0.192D-03-0.673D-03 0.129D-02-0.136D-02-0.582D-02 0.476D-01
 Coeff-Com: -0.151D+00 0.377D+00-0.937D+00 0.167D+01
 Coeff:      0.192D-03-0.673D-03 0.129D-02-0.136D-02-0.582D-02 0.476D-01
 Coeff:     -0.151D+00 0.377D+00-0.937D+00 0.167D+01
 Gap=     0.379 Goal=   None    Shift=    0.000
 RMSDP=1.63D-08 MaxDP=1.47D-07 DE=-4.97D-13 OVMax= 1.68D-07

 Cycle  11  Pass 1  IDiag  3:
 E= 0.549860620333988     Delta-E=        0.000000000000 Rises=F Damp=F
 DIIS: error= 2.70D-09 at cycle  11 NSaved=  11.
 NSaved=11 IEnMin=11 EnMin= 0.549860620333988     IErMin=11 ErrMin= 2.70D-09
 ErrMax= 2.70D-09  0.00D+00 EMaxC= 1.00D-01 BMatC= 2.57D-16 BMatP= 4.39D-15
 IDIUse=1 WtCom= 1.00D+00 WtEn= 0.00D+00
 Coeff-Com: -0.277D-04 0.982D-04-0.197D-03 0.360D-03-0.499D-03-0.691D-03
 Coeff-Com:  0.577D-02-0.263D-01 0.118D+00-0.465D+00 0.137D+01
 Coeff:     -0.277D-04 0.982D-04-0.197D-03 0.360D-03-0.499D-03-0.691D-03
 Coeff:      0.577D-02-0.263D-01 0.118D+00-0.465D+00 0.137D+01
 Gap=     0.379 Goal=   None    Shift=    0.000
 RMSDP=3.74D-09 MaxDP=3.50D-08 DE=-1.28D-13 OVMax= 3.54D-08

 Cycle  12  Pass 2  IDiag  1:
 SCF Done:  E(RAM1) =  0.549860620334     A.U. after   12 cycles
            NFock= 11  Conv=0.37D-08     -V/T= 1.0357
 KE=-1.539810078193D+01 PE=-1.706840001116D+02 EE= 8.431018362669D+01
 Leave Link  502 at Mon Mar 21 09:26:09 2016, MaxMem=    33554432 cpu:         0.0
 (Enter /opt/g09/g09/l701.exe)
 Compute integral first derivatives.
 ... and contract with generalized density number  0.
 Leave Link  701 at Mon Mar 21 09:26:09 2016, MaxMem=    33554432 cpu:         0.0
 (Enter /opt/g09/g09/l702.exe)
 L702 exits ... SP integral derivatives will be done elsewhere.
 Leave Link  702 at Mon Mar 21 09:26:09 2016, MaxMem=    33554432 cpu:         0.0
 (Enter /opt/g09/g09/l703.exe)
 Compute integral first derivatives, UseDBF=F ICtDFT=           0.
 Integral derivatives from FoFJK, PRISM(SPDF).
 Calling FoFJK, ICntrl=      2127 FMM=F ISym2X=0 I1Cent= 0 IOpClX= 0 NMat=1 NMatS=1 NMatT=0.
 FoFJK:  IHMeth= 8 ICntrl=    2127 DoSepK=F KAlg= 0 I1Cent=   0 FoldK=F
 IRaf=         0 NMat=   1 IRICut=       1 DoRegI=T DoRafI=F ISym2E= 0.
 FoFCou: FMM=F IPFlag=           0 FMFlag=      100000 FMFlg1=         800
         NFxFlg=           0 DoJE=F BraDBF=F KetDBF=F FulRan=T
         wScrn=  0.000000 ICntrl=    2127 IOpCl=  0 I1Cent=           0 NGrid=           0
         NMat0=    1 NMatS0=      1 NMatT0=    0 NMatD0=    1 NMtDS0=    0 NMtDT0=    0
 Symmetry not used in FoFCou.
 Leave Link  703 at Mon Mar 21 09:26:09 2016, MaxMem=    33554432 cpu:         0.0
 (Enter /opt/g09/g09/l716.exe)
 Dipole        = 1.39218604D-02 2.86356561D-01-7.53646567D-03
 ***** Axes restored to original set *****
 -------------------------------------------------------------------
 Center     Atomic                   Forces (Hartrees/Bohr)
 Number     Number              X              Y              Z
 -------------------------------------------------------------------
      1        6          -0.002279116   -0.003165030   -0.001977094
      2        6           0.002105582    0.005790880    0.001887690
      3        8          -0.000605567   -0.001026496    0.000328484
      4        6           0.000577915    0.001439040   -0.000508078
      5        6          -0.000888472    0.000792398    0.001115738
      6        1           0.001694063   -0.000211263   -0.000020703
      7        1          -0.000972960   -0.000762707   -0.000377058
      8        1          -0.000278889   -0.002944646   -0.000825525
      9        1           0.000647445    0.000087825    0.000376548
 -------------------------------------------------------------------
 Cartesian Forces:  Max     0.005790880 RMS     0.001743662
 Leave Link  716 at Mon Mar 21 09:26:09 2016, MaxMem=    33554432 cpu:         0.0
 (Enter /opt/g09/g09/l103.exe)

 GradGradGradGradGradGradGradGradGradGradGradGradGradGradGradGradGradGrad
 Berny optimization.
 Using GEDIIS/GDIIS optimizer.
 FormGI is forming the generalized inverse of G from B-inverse, IUseBI=4.
 Internal  Forces:  Max     0.002731620 RMS     0.000912872
 Search for a local minimum.
 Step number   3 out of a maximum of   48
 All quantities printed in internal units (Hartrees-Bohrs-Radians)
 RMS Force = .91287D-03 SwitMx=.10000D-02 MixMth= 2
 Mixed Optimization -- En-DIIS/RFO-DIIS
 Update second derivatives using D2CorX and points    1    2    3
 DE= -7.16D-04 DEPred=-6.89D-04 R= 1.04D+00
 TightC=F SS=  1.41D+00  RLast= 1.47D-01 DXNew= 8.4853D-01 4.4245D-01
 Trust test= 1.04D+00 RLast= 1.47D-01 DXMaxT set to 5.05D-01
 ITU=  1  1  0
 Use linear search instead of GDIIS.
     Eigenvalues ---    0.02018   0.02131   0.02347   0.02403   0.02599
     Eigenvalues ---    0.04151   0.13043   0.15999   0.16006   0.16028
     Eigenvalues ---    0.21830   0.23873   0.33867   0.35444   0.36564
     Eigenvalues ---    0.37767   0.39812   0.44555   0.49032   0.51466
     Eigenvalues ---    0.58558
 RFO step:  Lambda=-1.97764628D-04 EMin= 2.01777253D-02
 Quartic linear search produced a step of  0.02718.
 Iteration  1 RMS(Cart)=  0.00876009 RMS(Int)=  0.00010946
 Iteration  2 RMS(Cart)=  0.00008457 RMS(Int)=  0.00006034
 Iteration  3 RMS(Cart)=  0.00000001 RMS(Int)=  0.00006034
 ITry= 1 IFail=0 DXMaxC= 2.44D-02 DCOld= 1.00D+10 DXMaxT= 5.05D-01 DXLimC= 3.00D+00 Rises=F
 Variable       Old X    -DE/DX   Delta X   Delta X   Delta X     New X
                                 (Linear)    (Quad)   (Total)
    R1        2.58025  -0.00235  -0.00018  -0.00469  -0.00484   2.57541
    R2        2.71126   0.00100  -0.00004   0.00272   0.00268   2.71394
    R3        2.02435   0.00047  -0.00020   0.00009  -0.00010   2.02424
    R4        2.59448  -0.00061  -0.00029  -0.00319  -0.00345   2.59102
[...]
     X         X                                                                                         X                           
     X         X                                                                                         X                           
                                                                                                         X                           
                                                                                                         X                           
                                                                                                         X                           
                                                                                                         X                           
                                                                                                         X                           
                                                                                                         X                           
                                                                                                         X                           
                                                                                                         X                           
                                                                                                         X                           
                                                                                                         X                           
                                                                                                         X                           
 
 ***** Axes restored to original set *****
 -------------------------------------------------------------------
 Center     Atomic                   Forces (Hartrees/Bohr)
 Number     Number              X              Y              Z
 -------------------------------------------------------------------
      1        6           0.081128646    0.023799460   -0.010795391
      2        6          -0.063229079   -0.045069063    0.010745347
      3        8          -0.058048870   -0.005717840   -0.004022336
      4        6          -0.013876576    0.023612088    0.008323894
      5        6           0.049610161   -0.019366577   -0.000658344
      6        1          -0.001177275   -0.004734241    0.001090414
      7        1          -0.003132096    0.003043629   -0.004255900
      8        1           0.010592072    0.017021607   -0.004680563
      9        1          -0.001866982    0.007410936    0.004252879
 -------------------------------------------------------------------
 Cartesian Forces:  Max     0.081128646 RMS     0.027919529
 Z-matrix is all fixed cartesians, so copy forces.
 Force constants in Cartesian coordinates: 
                1             2             3             4             5 
      1  0.928097D+00
      2 -0.114054D+00  0.647786D+00
      3  0.218741D-01  0.106339D-01  0.137880D+00
      4 -0.444691D+00 -0.832807D-01 -0.268785D-01  0.733582D+00
      5 -0.175781D+00 -0.101525D+00 -0.108179D-01  0.233207D+00  0.712871D+00
      6 -0.288033D-01 -0.398032D-02 -0.681669D-01  0.197662D-01  0.273550D-01
      7 -0.115775D+00  0.601219D-01 -0.113021D-02 -0.208266D+00  0.148325D+00
      8  0.996577D-01  0.243225D-01  0.341728D-03 -0.358387D-02 -0.119097D+00
      9  0.427982D-04 -0.418823D-02  0.129002D-01  0.193803D-01 -0.144204D-01
     10 -0.102951D+00  0.427304D-01 -0.218599D-02  0.153313D+00 -0.345412D-01
     11  0.690365D-01 -0.705433D-01  0.327461D-02  0.373049D-01 -0.187705D+00
     12 -0.354173D-02  0.269092D-02  0.301882D-01 -0.418070D-02  0.896503D-04
     13 -0.289887D-01 -0.110345D-01  0.209547D-02 -0.835724D-01 -0.752315D-01
     14  0.192875D-01 -0.321820D+00  0.330752D-02 -0.667573D-01 -0.748567D-01
     15  0.580698D-03  0.122746D-02 -0.908541D-01 -0.234975D-02 -0.365677D-02
     16  0.139574D-02 -0.410406D-02 -0.107943D-03 -0.141962D-02  0.181862D-02
     17 -0.238817D-01 -0.258588D-01  0.305797D-03 -0.127791D-02 -0.248133D-02
     18 -0.665824D-04 -0.201371D-03  0.111248D-01 -0.216523D-04  0.585811D-03
     19 -0.263866D-02  0.116855D-02 -0.245432D-03 -0.360503D-02 -0.305995D-02
     20 -0.697607D-03  0.316314D-04 -0.150352D-03 -0.504675D-02 -0.601539D-03
     21  0.190659D-02  0.264380D-02 -0.160955D-02 -0.331987D-02  0.516556D-03
     22 -0.169782D-01 -0.261603D-01 -0.156667D-02 -0.107391D+00 -0.110548D+00
     23 -0.957501D-02 -0.605745D-02 -0.370362D-03 -0.107613D+00 -0.233400D+00
     24 -0.146657D-02 -0.125543D-02  0.172230D-01 -0.148445D-02  0.101543D-02
     25 -0.217471D+00  0.134613D+00  0.814524D-02 -0.379504D-01  0.158112D-01
     26  0.136008D+00 -0.146335D+00 -0.652496D-02 -0.295295D-02  0.679508D-02
     27  0.947405D-02 -0.757057D-02 -0.486854D-01 -0.911822D-03 -0.667208D-03
                6             7             8             9            10 
      6  0.121856D+00
      7  0.196290D-01  0.657915D+00
      8 -0.107045D-01  0.443562D-01  0.404279D+00
      9 -0.308948D-01 -0.419989D-01  0.340476D-03 -0.639482D-03
     10 -0.557323D-02 -0.217715D+00 -0.592652D-01  0.209275D-01  0.669605D+00
     11 -0.562583D-02 -0.199261D+00 -0.214274D+00  0.160058D-01 -0.152765D+00
     12 -0.141837D-01  0.203306D-01  0.136968D-01 -0.266311D-01 -0.998991D-02
     13 -0.361226D-02 -0.129545D+00 -0.789152D-01  0.174478D-02 -0.360590D+00
     14 -0.601615D-02 -0.533997D-01  0.877785D-02  0.550101D-02  0.687316D-01
     15  0.296947D-01 -0.142496D-02 -0.133151D-02  0.120051D-01 -0.663763D-02
     16 -0.365530D-05 -0.354402D-02 -0.209519D-02 -0.701179D-04 -0.348270D-01
     17  0.140449D-03  0.300228D-02 -0.993276D-03 -0.381267D-03  0.397066D-02
     18  0.383210D-02  0.416388D-03 -0.136308D-03  0.144242D-02 -0.152498D-02
     19  0.631695D-03  0.107165D-01 -0.184261D-01 -0.235161D-03 -0.102332D+00
     20  0.931098D-03  0.681124D-02 -0.520712D-01 -0.145363D-02  0.123847D+00
     21  0.745113D-03  0.166763D-02 -0.150189D-02  0.148249D-01  0.755673D-02
     22 -0.191827D-02  0.996055D-02  0.159356D-01  0.436600D-03 -0.348489D-02
     23 -0.146919D-02 -0.701740D-02 -0.505934D-01 -0.146650D-02  0.639152D-02
     24 -0.521611D-01  0.214362D-02 -0.234893D-02  0.141075D-01 -0.764542D-03
     25 -0.116304D-03 -0.374793D-02  0.233590D-02 -0.227620D-03 -0.101777D-02
     26 -0.630649D-03 -0.293812D-02 -0.350895D-03  0.628892D-04  0.899788D-03
     27  0.927885D-02  0.367307D-03  0.164431D-02  0.288517D-02 -0.180852D-02
               11            12            13            14            15 
     11  0.848697D+00
     12 -0.229857D-02  0.117460D+00
     13  0.129566D+00 -0.899782D-02  0.845336D+00
     14 -0.949948D-01 -0.592052D-03  0.143660D+00  0.667995D+00
     15  0.460181D-02 -0.789152D-01  0.718227D-02 -0.118171D-02  0.144188D+00
     16 -0.155350D-01 -0.357018D-03 -0.223135D+00 -0.141755D+00  0.179727D-02
     17  0.664880D-02  0.698603D-03 -0.143429D+00 -0.151917D+00  0.169336D-02
     18 -0.260766D-03  0.107737D-01  0.245707D-02  0.222753D-02 -0.456924D-01
     19  0.130135D+00  0.602917D-02 -0.179863D-01  0.268690D-01  0.695630D-03
     20 -0.284446D+00 -0.132765D-01  0.110195D-01 -0.704030D-02 -0.816275D-03
     21 -0.148108D-01 -0.428020D-01 -0.980926D-03 -0.122926D-02  0.192837D-01
     22  0.348666D-02  0.704555D-03 -0.258442D-02 -0.120397D-02 -0.201158D-03
     23 -0.535564D-03 -0.997588D-03  0.126662D-03  0.798439D-04 -0.400112D-05
     24 -0.345428D-03 -0.144175D-03 -0.100683D-02 -0.151973D-02  0.108872D-02
     25 -0.196765D-02  0.260496D-05  0.106661D-02  0.456736D-02  0.357749D-03
     26 -0.284694D-02 -0.113079D-04  0.242384D-01 -0.262232D-01 -0.532357D-03
     27 -0.541068D-03  0.425444D-02  0.111851D-02 -0.497465D-03  0.920179D-02
               16            17            18            19            20 
     16  0.261016D+00
     17  0.162004D+00  0.174002D+00
     18 -0.141813D-02 -0.229953D-02  0.227534D-01
     19  0.213888D-03 -0.911126D-04  0.280690D-04  0.114892D+00
     20  0.148901D-05  0.151408D-03  0.385502D-04 -0.136542D+00  0.344884D+00
     21 -0.390557D-05 -0.108226D-03 -0.884614D-03 -0.685652D-02  0.145984D-01
     22 -0.520264D-05 -0.485217D-03  0.103864D-03  0.735671D-03  0.507591D-03
     23 -0.136893D-03 -0.119149D-03 -0.419786D-04 -0.518344D-03 -0.836800D-03
     24  0.118428D-03 -0.386747D-04 -0.187433D-02  0.667435D-05  0.217036D-04
     25  0.305293D-03  0.187972D-03  0.259611D-04  0.378409D-05  0.995861D-04
     26 -0.198678D-03  0.567830D-03  0.880562D-04  0.465043D-03 -0.714415D-04
     27  0.450729D-04 -0.105135D-04 -0.147521D-02 -0.541249D-04  0.106991D-03
               21            22            23            24            25 
     21  0.134995D-01
     22 -0.132411D-04  0.119494D+00
     23 -0.113441D-04  0.118361D+00  0.291334D+00
     24 -0.173640D-02  0.239237D-02  0.434811D-02  0.241837D-01
     25  0.435460D-04  0.253093D-03 -0.184950D-04  0.613007D-04  0.258558D+00
     26 -0.972534D-04  0.107103D-03  0.128569D-03  0.122981D-03 -0.155629D+00
     27 -0.132071D-02  0.619682D-04  0.129049D-04 -0.686988D-03 -0.829249D-02
               26            27 
     26  0.168336D+00
     27  0.752261D-02  0.265479D-01
 Leave Link  716 at Mon Mar 21 09:26:10 2016, MaxMem=    33554432 cpu:         0.0
 (Enter /opt/g09/g09/l103.exe)

 GradGradGradGradGradGradGradGradGradGradGradGradGradGradGradGradGradGrad
 Berny optimization.
 Search for a local minimum.
 Step number   1 out of a maximum of    2
 All quantities printed in internal units (Hartrees-Bohrs-Radians)
 Second derivative matrix not updated -- analytic derivatives used.
 ITU=  0
     Eigenvalues ---   -0.01123   0.00802   0.04643   0.04985   0.05760
     Eigenvalues ---    0.06744   0.08407   0.16352   0.16616   0.17607
     Eigenvalues ---    0.22973   0.30923   0.34357   0.45469   0.53106
     Eigenvalues ---    0.68821   0.92895   1.09104   1.11142   1.28094
     Eigenvalues ---    1.59247
 Eigenvalue     1 is  -1.12D-02 should be greater than     0.000000 Eigenvector:
                          Z7        Z3        Z8        Z6        Z2
   1                    0.64616  -0.53434   0.49634  -0.13222   0.12184
                          Z4        Z5        X3        Y8        X7
   1                    0.10597  -0.06729  -0.03228  -0.01809   0.01533
 Quadratic step=3.309D-01 exceeds max=3.000D-01 adjusted using Lamda=-2.063D-03.
 Angle between NR and scaled steps=   5.80 degrees.
 Angle between quadratic step and forces=  57.96 degrees.
 Linear search not attempted -- first point.
 TrRot= -0.010508 -0.001891 -0.007286  0.823604 -0.002573 -0.824462
 Variable       Old X    -DE/DX   Delta X   Delta X   Delta X     New X
                                 (Linear)    (Quad)   (Total)
    X1        1.80212   0.08113   0.00000   0.06354   0.05205   1.85417
    Y1       -1.33316   0.02380   0.00000   0.03515   0.03180  -1.30136
    Z1        0.01759  -0.01080   0.00000  -0.09420  -0.10067  -0.08308
    X2       -0.61479  -0.06323   0.00000  -0.06264  -0.07484  -0.68963
    Y2       -2.06197  -0.04507   0.00000   0.00102  -0.00020  -2.06217
    Z2       -0.14189   0.01075   0.00000   0.09746   0.08510  -0.05679
    X3       -2.18532  -0.05805   0.00000  -0.10404  -0.11440  -2.29972
    Y3        0.01262  -0.00572   0.00000  -0.01051  -0.01028   0.00234
    Z3        0.02481  -0.00402   0.00000  -0.10395  -0.11523  -0.09042
    X4       -0.69830  -0.01388   0.00000   0.00437  -0.00437  -0.70267
    Y4        2.07054   0.02361   0.00000  -0.00440  -0.00570   2.06484
    Z4       -0.08104   0.00832   0.00000   0.08553   0.08094  -0.00011
    X5        1.81115   0.04961   0.00000   0.05163   0.04225   1.85340
    Y5        1.35466  -0.01937   0.00000  -0.03621  -0.03970   1.31496
    Z5       -0.00666  -0.00066   0.00000   0.00316   0.00162  -0.00504
    X6        3.41379  -0.00118   0.00000   0.04308   0.03468   3.44847
    Y6        2.60825  -0.00473   0.00000  -0.03972  -0.04468   2.56357
    Z6       -0.02654   0.00109   0.00000   0.07466   0.07827   0.05173
    X7       -1.58639  -0.00313   0.00000   0.00323  -0.00391  -1.59030
    Y7        3.87491   0.00304   0.00000   0.00658   0.00608   3.88099
    Z7        0.02381  -0.00426   0.00000  -0.04615  -0.04887  -0.02505
    X8       -1.61266   0.01059   0.00000   0.04425   0.03053  -1.58213
    Y8       -3.88534   0.01702   0.00000   0.01516   0.01473  -3.87061
    Z8       -0.14670  -0.00468   0.00000   0.09148   0.07414  -0.07256
    X9        3.41915  -0.00187   0.00000   0.05048   0.03801   3.45716
    Y9       -2.58704   0.00741   0.00000   0.05259   0.04795  -2.53909
    Z9       -0.07073   0.00425   0.00000  -0.04928  -0.05529  -0.12602
         Item               Value     Threshold  Converged?
 Maximum Force            0.081129     0.000450     NO 
 RMS     Force            0.027920     0.000300     NO 
 Maximum Displacement     0.115231     0.001800     NO 
 RMS     Displacement     0.057203     0.001200     NO 
 Predicted change in Energy=-1.171609D-02
 GradGradGradGradGradGradGradGradGradGradGradGradGradGradGradGradGradGrad

 Leave Link  103 at Mon Mar 21 09:26:10 2016, MaxMem=    33554432 cpu:         0.0
 (Enter /opt/g09/g09/l9999.exe)
 1\1\GINC-LINUX-CBNE\Freq\RAM1-Full\STO-3G\C4H4O1\DUSTIN\21-Mar-2016\0\
 \#P AM1(Input,Print) CIS(Singlets,NStates=10) pop(full) freq\\best1\\0
 ,1\C,0.953642,-0.70548,0.009309\C,-0.325333,-1.091148,-0.075085\O,-1.1
 56419,0.006679,0.013128\C,-0.369524,1.095685,-0.042886\C,0.958419,0.71
 6854,-0.003524\H,1.806499,1.380229,-0.014045\H,-0.83948,2.050512,0.012
 601\H,-0.853383,-2.056034,-0.077631\H,1.809335,-1.369003,-0.037429\\Ve
 rsion=ES64L-G09RevD.01\State=1-A\HF=0.555065\RMSD=6.333e-09\RMSF=2.792
 e-02\ZeroPoint=0.070134\Thermal=0.0738038\Dipole=0.3200007,0.0235052,-
 0.0241791\DipoleDeriv=-0.063803,0.132448,-0.0031512,-0.0625916,-0.1885
 78,-0.0122956,-0.010958,0.0526626,-0.1475329,0.3139987,0.2460808,0.072
 9303,-0.25119,-0.469108,0.0092181,-0.0247746,-0.0252718,-0.1379659,-0.
 7874961,-0.0312373,-0.1040043,-0.0105448,0.641443,0.0363794,0.0655641,
 0.0219097,-0.2365071,0.2570519,-0.207372,0.0120389,0.294192,-0.4560658
 ,-0.0346555,-0.0315063,-0.0125963,-0.1618636,-0.0294709,-0.1623955,0.0
 392027,0.0207706,-0.0875812,0.0053116,-0.000425,-0.0198318,-0.1676319,
 0.070854,0.0426457,-0.0019956,0.0054057,0.0866249,0.0041451,-0.0000011
 ,0.0089347,0.1639935,0.0897664,-0.0618915,-0.0073697,-0.0437349,0.1998
 536,-0.0117072,-0.0004307,0.0117632,0.2796862,0.0883663,0.0742389,-0.0
 081598,0.0435403,0.192132,0.0088186,-0.0076612,-0.0108349,0.2680835,0.
 0607313,-0.0325228,0.000509,0.0041522,0.0812784,-0.0052145,0.0101948,-
 0.0267392,0.1397383\Polar=39.999653,1.3353652,67.3120391,0.4314626,0.4
 020492,13.3839981\PG=C01 [X(C4H4O1)]\NImag=1\\0.92809724,-0.11405434,0
 .64778584,0.02187409,0.01063392,0.13787999,-0.44469143,-0.08328070,-0.
 02687855,0.73358223,-0.17578129,-0.10152450,-0.01081795,0.23320733,0.7
 1287097,-0.02880325,-0.00398032,-0.06816690,0.01976617,0.02735496,0.12
 185571,-0.11577464,0.06012191,-0.00113021,-0.20826567,0.14832494,0.019
 62903,0.65791535,0.09965770,0.02432250,0.00034173,-0.00358387,-0.11909
 680,-0.01070446,0.04435620,0.40427907,0.00004280,-0.00418823,0.0129002
 4,0.01938035,-0.01442040,-0.03089480,-0.04199892,0.00034048,-0.0006394
 8,-0.10295093,0.04273037,-0.00218599,0.15331347,-0.03454121,-0.0055732
 3,-0.21771473,-0.05926523,0.02092748,0.66960454,0.06903648,-0.07054329
 ,0.00327461,0.03730486,-0.18770546,-0.00562583,-0.19926142,-0.21427377
 ,0.01600580,-0.15276486,0.84869687,-0.00354173,0.00269092,0.03018823,-
 0.00418070,0.00008965,-0.01418367,0.02033061,0.01369677,-0.02663110,-0
 .00998991,-0.00229857,0.11745975,-0.02898870,-0.01103447,0.00209547,-0
 .08357241,-0.07523154,-0.00361226,-0.12954534,-0.07891516,0.00174478,-
 0.36059048,0.12956588,-0.00899782,0.84533604,0.01928746,-0.32182049,0.
 00330752,-0.06675727,-0.07485675,-0.00601615,-0.05339969,0.00877785,0.
 00550101,0.06873165,-0.09499476,-0.00059205,0.14365979,0.66799500,0.00
 058070,0.00122746,-0.09085408,-0.00234975,-0.00365677,0.02969470,-0.00
 142496,-0.00133151,0.01200510,-0.00663763,0.00460181,-0.07891521,0.007
 18227,-0.00118171,0.14418773,0.00139574,-0.00410406,-0.00010794,-0.001
 41962,0.00181862,-0.00000366,-0.00354402,-0.00209519,-0.00007012,-0.03
 482698,-0.01553502,-0.00035702,-0.22313525,-0.14175454,0.00179727,0.26
 101621,-0.02388173,-0.02585882,0.00030580,-0.00127791,-0.00248133,0.00
 014045,0.00300228,-0.00099328,-0.00038127,0.00397066,0.00664880,0.0006
 9860,-0.14342919,-0.15191707,0.00169336,0.16200425,0.17400153,-0.00006
 658,-0.00020137,0.01112475,-0.00002165,0.00058581,0.00383210,0.0004163
 9,-0.00013631,0.00144242,-0.00152498,-0.00026077,0.01077370,0.00245707
 ,0.00222753,-0.04569236,-0.00141813,-0.00229953,0.02275337,-0.00263866
 ,0.00116855,-0.00024543,-0.00360503,-0.00305995,0.00063169,0.01071653,
 -0.01842608,-0.00023516,-0.10233214,0.13013530,0.00602917,-0.01798626,
 0.02686898,0.00069563,0.00021389,-0.00009111,0.00002807,0.11489204,-0.
 00069761,0.00003163,-0.00015035,-0.00504675,-0.00060154,0.00093110,0.0
 0681124,-0.05207124,-0.00145363,0.12384740,-0.28444578,-0.01327647,0.0
 1101952,-0.00704030,-0.00081627,0.00000149,0.00015141,0.00003855,-0.13
 654237,0.34488406,0.00190659,0.00264380,-0.00160955,-0.00331987,0.0005
 1656,0.00074511,0.00166763,-0.00150189,0.01482492,0.00755673,-0.014810
 78,-0.04280198,-0.00098093,-0.00122926,0.01928374,-0.00000391,-0.00010
 823,-0.00088461,-0.00685652,0.01459841,0.01349949,-0.01697815,-0.02616
 033,-0.00156667,-0.10739070,-0.11054802,-0.00191827,0.00996055,0.01593
 560,0.00043660,-0.00348489,0.00348666,0.00070455,-0.00258442,-0.001203
 97,-0.00020116,-0.00000520,-0.00048522,0.00010386,0.00073567,0.0005075
 9,-0.00001324,0.11949390,-0.00957501,-0.00605745,-0.00037036,-0.107612
 59,-0.23339975,-0.00146919,-0.00701740,-0.05059338,-0.00146650,0.00639
 152,-0.00053556,-0.00099759,0.00012666,0.00007984,-0.00000400,-0.00013
 689,-0.00011915,-0.00004198,-0.00051834,-0.00083680,-0.00001134,0.1183
 6052,0.29133365,-0.00146657,-0.00125543,0.01722297,-0.00148445,0.00101
 543,-0.05216111,0.00214362,-0.00234893,0.01410749,-0.00076454,-0.00034
 543,-0.00014418,-0.00100683,-0.00151973,0.00108872,0.00011843,-0.00003
 867,-0.00187433,0.00000667,0.00002170,-0.00173640,0.00239237,0.0043481
 1,0.02418373,-0.21747054,0.13461301,0.00814524,-0.03795041,0.01581117,
 -0.00011630,-0.00374793,0.00233590,-0.00022762,-0.00101777,-0.00196765
 ,0.00000260,0.00106661,0.00456736,0.00035775,0.00030529,0.00018797,0.0
 0002596,0.00000378,0.00009959,0.00004355,0.00025309,-0.00001850,0.0000
 6130,0.25855779,0.13600833,-0.14633547,-0.00652496,-0.00295295,0.00679
 508,-0.00063065,-0.00293812,-0.00035089,0.00006289,0.00089979,-0.00284
 694,-0.00001131,0.02423837,-0.02622321,-0.00053236,-0.00019868,0.00056
 783,0.00008806,0.00046504,-0.00007144,-0.00009725,0.00010710,0.0001285
 7,0.00012298,-0.15562885,0.16833644,0.00947405,-0.00757057,-0.04868538
 ,-0.00091182,-0.00066721,0.00927885,0.00036731,0.00164431,0.00288517,-
 0.00180852,-0.00054107,0.00425444,0.00111851,-0.00049747,0.00920179,0.
 00004507,-0.00001051,-0.00147521,-0.00005412,0.00010699,-0.00132071,0.
 00006197,0.00001290,-0.00068699,-0.00829249,0.00752261,0.02654789\\-0.
 08112865,-0.02379946,0.01079539,0.06322908,0.04506906,-0.01074535,0.05
 804887,0.00571784,0.00402234,0.01387658,-0.02361209,-0.00832389,-0.049
 61016,0.01936658,0.00065834,0.00117728,0.00473424,-0.00109041,0.003132
 10,-0.00304363,0.00425590,-0.01059207,-0.01702161,0.00468056,0.0018669
 8,-0.00741094,-0.00425288\\\@


 THE REASON MAN'S BEST FRIEND IS A DOG IS BECAUSE
 HE WAGS HIS TAIL INSTEAD OF HIS TONGUE.
 Job cpu time:       0 days  0 hours  0 minutes  0.5 seconds.
 File lengths (MBytes):  RWF=      6 Int=      0 D2E=      0 Chk=      2 Scr=      1
 Normal termination of Gaussian 09 at Mon Mar 21 09:26:10 2016.
