 Entering Gaussian System, Link 0=g09
 Input=best.com
 Output=best.log
 Initial command:
 /opt/g09/g09/l1.exe "/opt/g09/scratch/Gau-18792.inp" -scrdir="/opt/g09/scratch/"
 Entering Link 1 = /opt/g09/g09/l1.exe PID=     18793.
  
 Copyright (c) 1988,1990,1992,1993,1995,1998,2003,2009,2013,
            Gaussian, Inc.  All Rights Reserved.
  
 This is part of the Gaussian(R) 09 program.  It is based on
 the Gaussian(R) 03 system (copyright 2003, Gaussian, Inc.),
 the Gaussian(R) 98 system (copyright 1998, Gaussian, Inc.),
 the Gaussian(R) 94 system (copyright 1995, Gaussian, Inc.),
 the Gaussian 92(TM) system (copyright 1992, Gaussian, Inc.),
 the Gaussian 90(TM) system (copyright 1990, Gaussian, Inc.),
 the Gaussian 88(TM) system (copyright 1988, Gaussian, Inc.),
 the Gaussian 86(TM) system (copyright 1986, Carnegie Mellon
 University), and the Gaussian 82(TM) system (copyright 1983,
 Carnegie Mellon University). Gaussian is a federally registered
 trademark of Gaussian, Inc.
  
 This software contains proprietary and confidential information,
 including trade secrets, belonging to Gaussian, Inc.
  
 This software is provided under written license and may be
 used, copied, transmitted, or stored only in accord with that
 written license.
  
 The following legend is applicable only to US Government
 contracts under FAR:
  
                    RESTRICTED RIGHTS LEGEND
  
 Use, reproduction and disclosure by the US Government is
 subject to restrictions as set forth in subparagraphs (a)
 and (c) of the Commercial Computer Software - Restricted
 Rights clause in FAR 52.227-19.
  
 Gaussian, Inc.
 340 Quinnipiac St., Bldg. 40, Wallingford CT 06492
  
  
 ---------------------------------------------------------------
 Warning -- This program may not be used in any manner that
 competes with the business of Gaussian, Inc. or will provide
 assistance to any competitor of Gaussian, Inc.  The licensee
 of this program is prohibited from giving any competitor of
 Gaussian, Inc. access to this program.  By using this program,
 the user acknowledges that Gaussian, Inc. is engaged in the
 business of creating and licensing software in the field of
 computational chemistry and represents and warrants to the
 licensee that it is not a competitor of Gaussian, Inc. and that
 it will not use this program in any manner prohibited above.
 ---------------------------------------------------------------
  

 Cite this work as:
 Gaussian 09, Revision D.01,
 M. J. Frisch, G. W. Trucks, H. B. Schlegel, G. E. Scuseria, 
 M. A. Robb, J. R. Cheeseman, G. Scalmani, V. Barone, B. Mennucci, 
 G. A. Petersson, H. Nakatsuji, M. Caricato, X. Li, H. P. Hratchian, 
 A. F. Izmaylov, J. Bloino, G. Zheng, J. L. Sonnenberg, M. Hada, 
 M. Ehara, K. Toyota, R. Fukuda, J. Hasegawa, M. Ishida, T. Nakajima, 
 Y. Honda, O. Kitao, H. Nakai, T. Vreven, J. A. Montgomery, Jr., 
 J. E. Peralta, F. Ogliaro, M. Bearpark, J. J. Heyd, E. Brothers, 
 K. N. Kudin, V. N. Staroverov, T. Keith, R. Kobayashi, J. Normand, 
 K. Raghavachari, A. Rendell, J. C. Burant, S. S. Iyengar, J. Tomasi, 
 M. Cossi, N. Rega, J. M. Millam, M. Klene, J. E. Knox, J. B. Cross, 
 V. Bakken, C. Adamo, J. Jaramillo, R. Gomperts, R. E. Stratmann, 
 O. Yazyev, A. J. Austin, R. Cammi, C. Pomelli, J. W. Ochterski, 
 R. L. Martin, K. Morokuma, V. G. Zakrzewski, G. A. Voth, 
 P. Salvador, J. J. Dannenberg, S. Dapprich, A. D. Daniels, 
 O. Farkas, J. B. Foresman, J. V. Ortiz, J. Cioslowski, 
 and D. J. Fox, Gaussian, Inc., Wallingford CT, 2013.
 
 ******************************************
 Gaussian 09:  ES64L-G09RevD.01 24-Apr-2013
                17-Mar-2016 
 ******************************************
 -----------------------
 #P AM1(Input,Print) opt
 -----------------------
 1/14=-1,18=20,19=15,26=1,38=1/1,3;
 2/9=110,12=2,17=6,18=5,40=1/2;
 3/5=2,16=1,25=1,41=700000,71=1,135=100,136=1/1,2,3;
 4/35=1/1;
 5/5=2,35=1,38=5/2;
 6/7=2,8=2,9=2,10=2,28=1/1;
 7//1,2,3,16;
 1/14=-1,18=20,19=15,26=1/3(2);
 2/9=110/2;
 99//99;
 2/9=110/2;
 3/5=2,16=1,25=1,41=700000,71=1,135=20,136=1/1,2,3;
 4/5=5,16=3,35=1/1;
 5/5=2,35=1,38=5/2;
 7//1,2,3,16;
 1/14=-1,18=20,19=15,26=1/3(-5);
 2/9=110/2;
 6/7=2,8=2,9=2,10=2,19=2,28=1/1;
 99/9=1/99;
 Leave Link    1 at Thu Mar 17 10:21:19 2016, MaxMem=           0 cpu:         0.0
 (Enter /opt/g09/g09/l101.exe)
 ----
 best
 ----
 Symbolic Z-matrix:
 Charge =  0 Multiplicity = 1
 6                     0.97673  -0.73196  -0.07523 
 6                    -0.34582  -1.08751   0.03001 
 8                    -1.11821   0.03455   0.04639 
 6                    -0.34608   1.09132   0.0646 
 6                     0.95639   0.71758  -0.00655 
 1                     1.79342   1.33924   0.03099 
 1                    -0.79687   2.09884   0.00101 
 1                    -0.78477  -1.99887   0.02788 
 1                     1.79651  -1.38255   0.09536 
 
 NAtoms=      9 NQM=        9 NQMF=       0 NMMI=      0 NMMIF=      0
                NMic=       0 NMicF=      0.
                    Isotopes and Nuclear Properties:
 (Nuclear quadrupole moments (NQMom) in fm**2, nuclear magnetic moments (NMagM)
  in nuclear magnetons)

  Atom         1           2           3           4           5           6           7           8           9
 IAtWgt=          12          12          16          12          12           1           1           1           1
 AtmWgt=  12.0000000  12.0000000  15.9949146  12.0000000  12.0000000   1.0078250   1.0078250   1.0078250   1.0078250
 NucSpn=           0           0           0           0           0           1           1           1           1
 AtZEff=   0.0000000   0.0000000   0.0000000   0.0000000   0.0000000   0.0000000   0.0000000   0.0000000   0.0000000
 NQMom=    0.0000000   0.0000000   0.0000000   0.0000000   0.0000000   0.0000000   0.0000000   0.0000000   0.0000000
 NMagM=    0.0000000   0.0000000   0.0000000   0.0000000   0.0000000   2.7928460   2.7928460   2.7928460   2.7928460
 AtZNuc=   6.0000000   6.0000000   8.0000000   6.0000000   6.0000000   1.0000000   1.0000000   1.0000000   1.0000000
 Leave Link  101 at Thu Mar 17 10:21:19 2016, MaxMem=    33554432 cpu:         0.0
 (Enter /opt/g09/g09/l103.exe)

 GradGradGradGradGradGradGradGradGradGradGradGradGradGradGradGradGradGrad
 Berny optimization.
 Initialization pass.
                           ----------------------------
                           !    Initial Parameters    !
                           ! (Angstroms and Degrees)  !
 --------------------------                            --------------------------
 ! Name  Definition              Value          Derivative Info.                !
 --------------------------------------------------------------------------------
 ! R1    R(1,2)                  1.3735         estimate D2E/DX2                !
 ! R2    R(1,5)                  1.4513         estimate D2E/DX2                !
 ! R3    R(1,9)                  1.0604         estimate D2E/DX2                !
 ! R4    R(2,3)                  1.3623         estimate D2E/DX2                !
 ! R5    R(2,8)                  1.0116         estimate D2E/DX2                !
 ! R6    R(3,4)                  1.3089         estimate D2E/DX2                !
 ! R7    R(4,5)                  1.3569         estimate D2E/DX2                !
 ! R8    R(4,7)                  1.1056         estimate D2E/DX2                !
 ! R9    R(5,6)                  1.0433         estimate D2E/DX2                !
 ! A1    A(2,1,5)              103.9703         estimate D2E/DX2                !
 ! A2    A(2,1,9)              124.9777         estimate D2E/DX2                !
 ! A3    A(5,1,9)              128.0256         estimate D2E/DX2                !
 ! A4    A(1,2,3)              109.49           estimate D2E/DX2                !
 ! A5    A(1,2,8)              130.6074         estimate D2E/DX2                !
 ! A6    A(3,2,8)              119.7395         estimate D2E/DX2                !
 ! A7    A(2,3,4)              109.3107         estimate D2E/DX2                !
 ! A8    A(3,4,5)              110.0675         estimate D2E/DX2                !
 ! A9    A(3,4,7)              119.6311         estimate D2E/DX2                !
 ! A10   A(5,4,7)              129.7447         estimate D2E/DX2                !
 ! A11   A(1,5,4)              106.92           estimate D2E/DX2                !
 ! A12   A(1,5,6)              125.8447         estimate D2E/DX2                !
 ! A13   A(4,5,6)              127.1637         estimate D2E/DX2                !
 ! D1    D(5,1,2,3)              4.7259         estimate D2E/DX2                !
 ! D2    D(5,1,2,8)            179.9637         estimate D2E/DX2                !
 ! D3    D(9,1,2,3)            166.3076         estimate D2E/DX2                !
 ! D4    D(9,1,2,8)            -18.4545         estimate D2E/DX2                !
 ! D5    D(2,1,5,4)             -2.8923         estimate D2E/DX2                !
 ! D6    D(2,1,5,6)            174.2037         estimate D2E/DX2                !
 ! D7    D(9,1,5,4)           -163.706          estimate D2E/DX2                !
 ! D8    D(9,1,5,6)             13.3901         estimate D2E/DX2                !
 ! D9    D(1,2,3,4)             -5.021          estimate D2E/DX2                !
 ! D10   D(8,2,3,4)            179.1416         estimate D2E/DX2                !
 ! D11   D(2,3,4,5)              3.0417         estimate D2E/DX2                !
 ! D12   D(2,3,4,7)            175.3005         estimate D2E/DX2                !
 ! D13   D(3,4,5,1)             -0.0264         estimate D2E/DX2                !
 ! D14   D(3,4,5,6)           -177.0725         estimate D2E/DX2                !
 ! D15   D(7,4,5,1)           -171.2675         estimate D2E/DX2                !
 ! D16   D(7,4,5,6)             11.6863         estimate D2E/DX2                !
 --------------------------------------------------------------------------------
 Trust Radius=3.00D-01 FncErr=1.00D-07 GrdErr=1.00D-07
 Number of steps in this run=     48 maximum allowed number of steps=    100.
 GradGradGradGradGradGradGradGradGradGradGradGradGradGradGradGradGradGrad

 Leave Link  103 at Thu Mar 17 10:21:19 2016, MaxMem=    33554432 cpu:         0.0
 (Enter /opt/g09/g09/l202.exe)
                          Input orientation:                          
 ---------------------------------------------------------------------
 Center     Atomic      Atomic             Coordinates (Angstroms)
 Number     Number       Type             X           Y           Z
 ---------------------------------------------------------------------
      1          6           0        0.976728   -0.731964   -0.075228
      2          6           0       -0.345819   -1.087508    0.030009
      3          8           0       -1.118208    0.034550    0.046388
      4          6           0       -0.346076    1.091321    0.064601
      5          6           0        0.956391    0.717577   -0.006551
      6          1           0        1.793418    1.339235    0.030986
      7          1           0       -0.796865    2.098835    0.001013
      8          1           0       -0.784768   -1.998865    0.027884
      9          1           0        1.796505   -1.382545    0.095361
 ---------------------------------------------------------------------
                    Distance matrix (angstroms):
                    1          2          3          4          5
     1  C    0.000000
     2  C    1.373542   0.000000
     3  O    2.234075   1.362302   0.000000
     4  C    2.256929   2.179104   1.308925   0.000000
     5  C    1.451309   2.226077   2.184786   1.356896   0.000000
     6  H    2.228930   3.235030   3.190612   2.154072   1.043303
     7  H    3.341387   3.218239   2.089639   1.105594   2.232003
     8  H    2.172220   1.011559   2.060656   3.121386   3.226744
     9  H    1.060373   2.163532   3.241313   3.272860   2.264220
                    6          7          8          9
     6  H    0.000000
     7  H    2.699529   0.000000
     8  H    4.217815   4.097806   0.000000
     9  H    2.722543   4.342174   2.654689   0.000000
 Stoichiometry    C4H4O
 Framework group  C1[X(C4H4O)]
 Deg. of freedom    21
 Full point group                 C1      NOp   1
 Largest Abelian subgroup         C1      NOp   1
 Largest concise Abelian subgroup C1      NOp   1
                         Standard orientation:                         
 ---------------------------------------------------------------------
 Center     Atomic      Atomic             Coordinates (Angstroms)
 Number     Number       Type             X           Y           Z
 ---------------------------------------------------------------------
      1          6           0        0.971282    0.731663   -0.055312
      2          6           0        0.958615   -0.640006    0.015260
      3          8           0       -0.329081   -1.084238   -0.003820
      4          6           0       -1.141377   -0.058257    0.024861
      5          6           0       -0.432058    1.098120   -0.003873
      6          1           0       -0.808160    2.069725    0.051006
      7          1           0       -2.231306   -0.221348   -0.063427
      8          1           0        1.719494   -1.306561    0.010739
      9          1           0        1.813847    1.342969    0.146628
 ---------------------------------------------------------------------
 Rotational constants (GHZ):      9.7024063      9.2752276      4.7483391
 Leave Link  202 at Thu Mar 17 10:21:19 2016, MaxMem=    33554432 cpu:         0.0
 (Enter /opt/g09/g09/l301.exe)

 Semi-emprical parameters in input format:
 Method=8 CoreType=1 PeptideFC=0.0107032408 RIJScale=0.5646683443
 ****
 H       
 PQN=1 NValence=1 F0ss=0.4902250734 ZetaOverlap=1.2625510943 U=-0.4601465906
 Beta=-0.2224699164 CoreKO=1.0291173295 KON=0,0,0,1.1055276885 KON=1,0,1,1.0085272650
 KON=0,1,1,1.0259108377 KON=2,1,1,1.0589197790 EISol=-0.4188110042 EHeat=0.0830298228
 Alpha=1.2572081350
 GCore=0.0081342693,1.4505257765,2.1160306407
 GCore=0.0003696981,1.5179527606,3.3888367972
 GCore=-0.0011992083,0.5154975422,4.0399040163
 ****
 C       
 PQN=2,2 NValence=4 F0ss=0.4612714573 F0sp=0.4215147623 F0pp=0.3269054842 F2pp=0.2085460392
 G1sp=0.3096434975
 ZetaOverlap=2.1646468441,1.5569944789
 U=-1.5334837513,-1.4974702043
 Beta=-0.6252100258,-0.3068862367 DDN=0,1,0.6984301211 DDN=1,1,0.7702570468
 CoreKO=1.3151611645 KON=0,0,0,1.2382550940 KON=1,0,1,0.8617144622 KON=0,1,1,1.0637633139
 KON=2,1,1,0.8576090188 EISol=-4.4398989268 EHeat=0.2723305520 Alpha=1.3368170489
 DipHyp=1.3967798796
 GCore=0.0009704188,1.2981166851,3.4515465450
 GCore=0.0028863397,1.5385714962,3.2100917158
 GCore=-0.0014099133,1.4874457386,3.8453859100
 GCore=-0.0000860662,1.3789752971,5.2587410456
 ****
 O       
 PQN=2,2 NValence=6 F0ss=0.5359690226 F0sp=0.5321302318 F0pp=0.4840519312 F2pp=0.2639984521
 G1sp=0.4450193053
 ZetaOverlap=2.8176196354,2.2908378184
 U=-3.6356959050,-2.4160313669
 Beta=-1.1447216884,-1.0701077288 DDN=0,1,0.5129696429 DDN=1,1,0.4392220846
 CoreKO=0.9737932452 KON=0,0,0,0.8111546111 KON=1,0,1,0.5440307728 KON=0,1,1,0.8528423668
 KON=2,1,1,0.6049512231 EISol=-11.6164441184 EHeat=0.0949133088 Alpha=2.2596482987
 DipHyp=1.0258802626
 GCore=0.0203637789,1.7341302153,2.0999404139
 GCore=0.0054396795,2.1476287035,2.3942679546
 ****
 
 Standard basis: VSTO-6G (5D, 7F)
 Ernie: Thresh=  0.10000D-02 Tol=  0.10000D-05 Strict=F.
  NNHCO=     0 NNPyr=     0 NCTC=     0               EPep=         0.000000000
    EC=        66.160068841  ECS=         2.270527932   EG=         0.539528601
   EHC=         0.000000000  EAt=       -31.051283842  AtH=         1.516354808
 EPDDG=         0.000000000  ECC=        68.970125374 EAtT=        32.567638650
 There are    24 symmetry adapted cartesian basis functions of A   symmetry.
 There are    24 symmetry adapted basis functions of A   symmetry.
    24 basis functions,   144 primitive gaussians,    24 cartesian basis functions
    13 alpha electrons       13 beta electrons
       nuclear repulsion energy       101.5377640244 Hartrees.
 IExCor=    0 DFT=F Ex=HF Corr=None ExCW=0 ScaHFX=  1.000000
 ScaDFX=  1.000000  1.000000  1.000000  1.000000 ScalE2=  1.000000  1.000000
 IRadAn=      0 IRanWt=     -1 IRanGd=            0 ICorTp=0 IEmpDi=  4
 Integral buffers will be    131072 words long.
 Regular integral format.
 Two-electron integral symmetry is turned off.
 Leave Link  301 at Thu Mar 17 10:21:19 2016, MaxMem=    33554432 cpu:         0.0
 (Enter /opt/g09/g09/l302.exe)
 Do NDO integrals.
 NPDir=0 NMtPBC=     1 NCelOv=     1 NCel=       1 NClECP=     1 NCelD=      1
         NCelK=      1 NCelE2=     1 NClLst=     1 CellRange=     0.0.
 One-electron integrals computed using PRISM.
 NBasis=    24 RedAO= F EigKep=  0.00D+00  NBF=    24
 NBsUse=    24 1.00D-04 EigRej=  0.00D+00 NBFU=    24
 Leave Link  302 at Thu Mar 17 10:21:19 2016, MaxMem=    33554432 cpu:         0.0
 (Enter /opt/g09/g09/l303.exe)
 DipDrv:  MaxL=1.
 Leave Link  303 at Thu Mar 17 10:21:19 2016, MaxMem=    33554432 cpu:         0.0
 (Enter /opt/g09/g09/l401.exe)
 Simple Huckel Guess.
 JPrj=0 DoOrth=F DoCkMO=F.
 Leave Link  401 at Thu Mar 17 10:21:19 2016, MaxMem=    33554432 cpu:         0.0
 (Enter /opt/g09/g09/l502.exe)
 Closed shell SCF:
 Using DIIS extrapolation, IDIIS=  1040.
 Overlap will be assumed to be unity.
 Two-electron integral symmetry not used.
 Keep J ints in memory in canonical form, NReq=888082.
 IVT=       79475 IEndB=       79475 NGot=    33554432 MDV=    33473473
 LenX=    33473473 LenY=    33472456
 Requested convergence on RMS density matrix=1.00D-08 within 128 cycles.
 Requested convergence on MAX density matrix=1.00D-06.
 Requested convergence on             energy=1.00D-06.
 No special actions if energy rises.
 FoFCou: FMM=F IPFlag=           0 FMFlag=           0 FMFlg1=           0
         NFxFlg=           0 DoJE=F BraDBF=F KetDBF=F FulRan=T
         wScrn=  0.000000 ICntrl=     600 IOpCl=  2 I1Cent=           0 NGrid=           0
         NMat0=    1 NMatS0=     54 NMatT0=    0 NMatD0=    1 NMtDS0=    0 NMtDT0=    0
 Symmetry not used in FoFCou.

 Cycle   1  Pass 1  IDiag  1:
 E=  2.68855072753883    
 DIIS: error= 9.53D-02 at cycle   1 NSaved=   1.
 NSaved= 1 IEnMin= 1 EnMin=  2.68855072753883     IErMin= 1 ErrMin= 9.53D-02
 ErrMax= 9.53D-02  0.00D+00 EMaxC= 1.00D-01 BMatC= 3.00D-01 BMatP= 3.00D-01
 IDIUse=3 WtCom= 4.66D-02 WtEn= 9.53D-01
 Coeff-Com:  0.100D+01
 Coeff-En:   0.100D+01
 Coeff:      0.100D+01
 GapD=    2.000 DampG=2.000 DampE=0.500 DampFc=1.0000 IDamp=-1.
 RMSDP=4.83D-02 MaxDP=5.12D-01              OVMax= 0.00D+00

 Cycle   2  Pass 1  IDiag  1:
 E=  1.49417510592481     Delta-E=       -1.194375621614 Rises=F Damp=F
 DIIS: error= 3.47D-02 at cycle   2 NSaved=   2.
 NSaved= 2 IEnMin= 2 EnMin=  1.49417510592481     IErMin= 2 ErrMin= 3.47D-02
 ErrMax= 3.47D-02  0.00D+00 EMaxC= 1.00D-01 BMatC= 4.33D-02 BMatP= 3.00D-01
 IDIUse=3 WtCom= 6.53D-01 WtEn= 3.47D-01
 Coeff-Com: -0.251D+00 0.125D+01
 Coeff-En:   0.000D+00 0.100D+01
 Coeff:     -0.164D+00 0.116D+01
 RMSDP=1.91D-02 MaxDP=1.31D-01 DE=-1.19D+00 OVMax= 0.00D+00

 Cycle   3  Pass 1  IDiag  1:
 E=  1.31440084256113     Delta-E=       -0.179774263364 Rises=F Damp=F
 DIIS: error= 1.42D-02 at cycle   3 NSaved=   3.
 NSaved= 3 IEnMin= 3 EnMin=  1.31440084256113     IErMin= 3 ErrMin= 1.42D-02
 ErrMax= 1.42D-02  0.00D+00 EMaxC= 1.00D-01 BMatC= 6.81D-03 BMatP= 4.33D-02
 IDIUse=3 WtCom= 8.58D-01 WtEn= 1.42D-01
 Coeff-Com:  0.924D-02-0.389D+00 0.138D+01
 Coeff-En:   0.000D+00 0.000D+00 0.100D+01
 Coeff:      0.793D-02-0.334D+00 0.133D+01
 RMSDP=9.58D-03 MaxDP=5.70D-02 DE=-1.80D-01 OVMax= 0.00D+00

 Cycle   4  Pass 1  IDiag  3:
 E=  1.28040947206694     Delta-E=       -0.033991370494 Rises=F Damp=F
 DIIS: error= 4.00D-03 at cycle   4 NSaved=   4.
 NSaved= 4 IEnMin= 4 EnMin=  1.28040947206694     IErMin= 4 ErrMin= 4.00D-03
 ErrMax= 4.00D-03  0.00D+00 EMaxC= 1.00D-01 BMatC= 7.47D-04 BMatP= 6.81D-03
 IDIUse=3 WtCom= 9.60D-01 WtEn= 4.00D-02
 Coeff-Com:  0.134D-01 0.545D-01-0.595D+00 0.153D+01
 Coeff-En:   0.000D+00 0.000D+00 0.000D+00 0.100D+01
 Coeff:      0.128D-01 0.523D-01-0.571D+00 0.151D+01
 Gap=     0.385 Goal=   None    Shift=    0.000
 RMSDP=4.19D-03 MaxDP=2.26D-02 DE=-3.40D-02 OVMax= 3.80D-02

 Cycle   5  Pass 1  IDiag  3:
 E=  1.27603243033248     Delta-E=       -0.004377041734 Rises=F Damp=F
 DIIS: error= 9.78D-04 at cycle   5 NSaved=   5.
 NSaved= 5 IEnMin= 5 EnMin=  1.27603243033248     IErMin= 5 ErrMin= 9.78D-04
 ErrMax= 9.78D-04  0.00D+00 EMaxC= 1.00D-01 BMatC= 3.93D-05 BMatP= 7.47D-04
 IDIUse=3 WtCom= 9.90D-01 WtEn= 9.78D-03
 Coeff-Com: -0.480D-02-0.375D-01 0.349D+00-0.102D+01 0.171D+01
 Coeff-En:   0.000D+00 0.000D+00 0.000D+00 0.000D+00 0.100D+01
 Coeff:     -0.476D-02-0.371D-01 0.345D+00-0.101D+01 0.170D+01
 Gap=     0.388 Goal=   None    Shift=    0.000
 RMSDP=1.07D-03 MaxDP=6.17D-03 DE=-4.38D-03 OVMax= 9.91D-03

 Cycle   6  Pass 1  IDiag  3:
 E=  1.27580368562205     Delta-E=       -0.000228744710 Rises=F Damp=F
 DIIS: error= 1.60D-04 at cycle   6 NSaved=   6.
 NSaved= 6 IEnMin= 6 EnMin=  1.27580368562205     IErMin= 6 ErrMin= 1.60D-04
 ErrMax= 1.60D-04  0.00D+00 EMaxC= 1.00D-01 BMatC= 5.83D-07 BMatP= 3.93D-05
 IDIUse=3 WtCom= 9.98D-01 WtEn= 1.60D-03
 Coeff-Com: -0.902D-04 0.110D-01-0.569D-01 0.143D+00-0.298D+00 0.120D+01
 Coeff-En:   0.000D+00 0.000D+00 0.000D+00 0.000D+00 0.000D+00 0.100D+01
 Coeff:     -0.900D-04 0.110D-01-0.568D-01 0.143D+00-0.297D+00 0.120D+01
 Gap=     0.388 Goal=   None    Shift=    0.000
 RMSDP=8.79D-05 MaxDP=6.53D-04 DE=-2.29D-04 OVMax= 6.29D-04

 Cycle   7  Pass 1  IDiag  3:
 E=  1.27580136689232     Delta-E=       -0.000002318730 Rises=F Damp=F
 DIIS: error= 2.11D-05 at cycle   7 NSaved=   7.
 NSaved= 7 IEnMin= 7 EnMin=  1.27580136689232     IErMin= 7 ErrMin= 2.11D-05
 ErrMax= 2.11D-05  0.00D+00 EMaxC= 1.00D-01 BMatC= 1.85D-08 BMatP= 5.83D-07
 IDIUse=1 WtCom= 1.00D+00 WtEn= 0.00D+00
 Coeff-Com:  0.946D-04-0.121D-02 0.113D-02 0.195D-02 0.114D-01-0.297D+00
 Coeff-Com:  0.128D+01
 Coeff:      0.946D-04-0.121D-02 0.113D-02 0.195D-02 0.114D-01-0.297D+00
 Coeff:      0.128D+01
 Gap=     0.388 Goal=   None    Shift=    0.000
 RMSDP=1.59D-05 MaxDP=9.42D-05 DE=-2.32D-06 OVMax= 9.03D-05

 Cycle   8  Pass 1  IDiag  3:
 E=  1.27580129200861     Delta-E=       -0.000000074884 Rises=F Damp=F
 DIIS: error= 5.42D-06 at cycle   8 NSaved=   8.
 NSaved= 8 IEnMin= 8 EnMin=  1.27580129200861     IErMin= 8 ErrMin= 5.42D-06
 ErrMax= 5.42D-06  0.00D+00 EMaxC= 1.00D-01 BMatC= 9.32D-10 BMatP= 1.85D-08
 IDIUse=1 WtCom= 1.00D+00 WtEn= 0.00D+00
 Coeff-Com: -0.139D-04 0.483D-04 0.173D-02-0.581D-02 0.480D-02 0.944D-01
 Coeff-Com: -0.495D+00 0.140D+01
 Coeff:     -0.139D-04 0.483D-04 0.173D-02-0.581D-02 0.480D-02 0.944D-01
 Coeff:     -0.495D+00 0.140D+01
 Gap=     0.388 Goal=   None    Shift=    0.000
 RMSDP=4.46D-06 MaxDP=4.67D-05 DE=-7.49D-08 OVMax= 4.12D-05

 Cycle   9  Pass 1  IDiag  3:
 E=  1.27580128667495     Delta-E=       -0.000000005334 Rises=F Damp=F
 DIIS: error= 2.85D-06 at cycle   9 NSaved=   9.
 NSaved= 9 IEnMin= 9 EnMin=  1.27580128667495     IErMin= 9 ErrMin= 2.85D-06
 ErrMax= 2.85D-06  0.00D+00 EMaxC= 1.00D-01 BMatC= 1.52D-10 BMatP= 9.32D-10
 IDIUse=1 WtCom= 1.00D+00 WtEn= 0.00D+00
 Coeff-Com: -0.232D-05 0.617D-04-0.110D-02 0.313D-02-0.344D-02-0.376D-01
 Coeff-Com:  0.198D+00-0.800D+00 0.164D+01
 Coeff:     -0.232D-05 0.617D-04-0.110D-02 0.313D-02-0.344D-02-0.376D-01
 Coeff:      0.198D+00-0.800D+00 0.164D+01
 Gap=     0.388 Goal=   None    Shift=    0.000
 RMSDP=2.35D-06 MaxDP=2.57D-05 DE=-5.33D-09 OVMax= 2.81D-05

 Cycle  10  Pass 1  IDiag  3:
 E=  1.27580128543582     Delta-E=       -0.000000001239 Rises=F Damp=F
 DIIS: error= 1.24D-06 at cycle  10 NSaved=  10.
 NSaved=10 IEnMin=10 EnMin=  1.27580128543582     IErMin=10 ErrMin= 1.24D-06
 ErrMax= 1.24D-06  0.00D+00 EMaxC= 1.00D-01 BMatC= 3.12D-11 BMatP= 1.52D-10
 IDIUse=1 WtCom= 1.00D+00 WtEn= 0.00D+00
 Coeff-Com:  0.432D-05-0.585D-04 0.527D-03-0.128D-02 0.193D-02 0.102D-01
 Coeff-Com: -0.541D-01 0.318D+00-0.125D+01 0.197D+01
 Coeff:      0.432D-05-0.585D-04 0.527D-03-0.128D-02 0.193D-02 0.102D-01
 Coeff:     -0.541D-01 0.318D+00-0.125D+01 0.197D+01
 Gap=     0.388 Goal=   None    Shift=    0.000
 RMSDP=1.53D-06 MaxDP=1.73D-05 DE=-1.24D-09 OVMax= 1.79D-05

 Cycle  11  Pass 1  IDiag  3:
 E=  1.27580128513557     Delta-E=       -0.000000000300 Rises=F Damp=F
 DIIS: error= 1.95D-07 at cycle  11 NSaved=  11.
 NSaved=11 IEnMin=11 EnMin=  1.27580128513557     IErMin=11 ErrMin= 1.95D-07
 ErrMax= 1.95D-07  0.00D+00 EMaxC= 1.00D-01 BMatC= 1.83D-12 BMatP= 3.12D-11
 IDIUse=1 WtCom= 1.00D+00 WtEn= 0.00D+00
 Coeff-Com: -0.803D-06 0.735D-05-0.729D-04 0.127D-03-0.353D-03-0.155D-02
 Coeff-Com:  0.574D-02-0.534D-01 0.373D+00-0.863D+00 0.154D+01
 Coeff:     -0.803D-06 0.735D-05-0.729D-04 0.127D-03-0.353D-03-0.155D-02
 Coeff:      0.574D-02-0.534D-01 0.373D+00-0.863D+00 0.154D+01
 Gap=     0.388 Goal=   None    Shift=    0.000
 RMSDP=3.20D-07 MaxDP=3.41D-06 DE=-3.00D-10 OVMax= 2.88D-06

 Cycle  12  Pass 1  IDiag  3:
 E=  1.27580128512179     Delta-E=       -0.000000000014 Rises=F Damp=F
 DIIS: error= 5.82D-08 at cycle  12 NSaved=  12.
 NSaved=12 IEnMin=12 EnMin=  1.27580128512179     IErMin=12 ErrMin= 5.82D-08
 ErrMax= 5.82D-08  0.00D+00 EMaxC= 1.00D-01 BMatC= 7.46D-14 BMatP= 1.83D-12
 IDIUse=1 WtCom= 1.00D+00 WtEn= 0.00D+00
 Coeff-Com: -0.273D-07 0.764D-06 0.436D-06 0.228D-04 0.503D-04 0.755D-04
 Coeff-Com:  0.828D-03 0.345D-02-0.914D-01 0.273D+00-0.659D+00 0.147D+01
 Coeff:     -0.273D-07 0.764D-06 0.436D-06 0.228D-04 0.503D-04 0.755D-04
 Coeff:      0.828D-03 0.345D-02-0.914D-01 0.273D+00-0.659D+00 0.147D+01
 Gap=     0.388 Goal=   None    Shift=    0.000
 RMSDP=4.86D-08 MaxDP=3.23D-07 DE=-1.38D-11 OVMax= 4.41D-07

 Cycle  13  Pass 1  IDiag  3:
 E=  1.27580128512102     Delta-E=       -0.000000000001 Rises=F Damp=F
 DIIS: error= 1.49D-08 at cycle  13 NSaved=  13.
 NSaved=13 IEnMin=13 EnMin=  1.27580128512102     IErMin=13 ErrMin= 1.49D-08
 ErrMax= 1.49D-08  0.00D+00 EMaxC= 1.00D-01 BMatC= 4.17D-15 BMatP= 7.46D-14
 IDIUse=1 WtCom= 1.00D+00 WtEn= 0.00D+00
 Coeff-Com:  0.168D-07-0.315D-06 0.281D-05-0.159D-04-0.777D-05 0.111D-03
 Coeff-Com: -0.929D-03 0.192D-02 0.183D-01-0.698D-01 0.193D+00-0.616D+00
 Coeff-Com:  0.147D+01
 Coeff:      0.168D-07-0.315D-06 0.281D-05-0.159D-04-0.777D-05 0.111D-03
 Coeff:     -0.929D-03 0.192D-02 0.183D-01-0.698D-01 0.193D+00-0.616D+00
 Coeff:      0.147D+01
 Gap=     0.388 Goal=   None    Shift=    0.000
 RMSDP=1.21D-08 MaxDP=9.38D-08 DE=-7.67D-13 OVMax= 1.25D-07

 Cycle  14  Pass 1  IDiag  3:
 E=  1.27580128512106     Delta-E=        0.000000000000 Rises=F Damp=F
 DIIS: error= 2.67D-09 at cycle  14 NSaved=  14.
 NSaved=14 IEnMin=13 EnMin=  1.27580128512102     IErMin=14 ErrMin= 2.67D-09
 ErrMax= 2.67D-09  0.00D+00 EMaxC= 1.00D-01 BMatC= 1.61D-16 BMatP= 4.17D-15
 IDIUse=1 WtCom= 1.00D+00 WtEn= 0.00D+00
 Coeff-Com:  0.379D-08 0.136D-07-0.706D-06 0.415D-05 0.193D-05-0.410D-04
 Coeff-Com:  0.292D-03-0.729D-03-0.322D-02 0.150D-01-0.440D-01 0.154D+00
 Coeff-Com: -0.508D+00 0.139D+01
 Coeff:      0.379D-08 0.136D-07-0.706D-06 0.415D-05 0.193D-05-0.410D-04
 Coeff:      0.292D-03-0.729D-03-0.322D-02 0.150D-01-0.440D-01 0.154D+00
 Coeff:     -0.508D+00 0.139D+01
 Gap=     0.388 Goal=   None    Shift=    0.000
 RMSDP=2.31D-09 MaxDP=1.82D-08 DE= 4.26D-14 OVMax= 2.72D-08

 Cycle  15  Pass 2  IDiag  1:
 SCF Done:  E(RAM1) =   1.27580128512     A.U. after   15 cycles
            NFock= 14  Conv=0.23D-08     -V/T= 1.0816
 KE=-1.563551120355D+01 PE=-1.669740311993D+02 EE= 8.234757966359D+01
 Leave Link  502 at Thu Mar 17 10:21:19 2016, MaxMem=    33554432 cpu:         0.0
 (Enter /opt/g09/g09/l601.exe)
 Copying SCF densities to generalized density rwf, IOpCl= 0 IROHF=0.

 **********************************************************************

            Population analysis using the SCF density.

 **********************************************************************

 Orbital symmetries:
       Occupied  (A) (A) (A) (A) (A) (A) (A) (A) (A) (A) (A) (A)
                 (A)
       Virtual   (A) (A) (A) (A) (A) (A) (A) (A) (A) (A) (A)
 The electronic state is 1-A.
 Alpha  occ. eigenvalues --   -1.67750  -0.92396  -0.81238  -0.71440  -0.67381
 Alpha  occ. eigenvalues --   -0.65896  -0.62333  -0.57423  -0.52093  -0.49446
 Alpha  occ. eigenvalues --   -0.47166  -0.44955  -0.36202
 Alpha virt. eigenvalues --    0.02541   0.16316   0.17557   0.18912   0.24901
 Alpha virt. eigenvalues --    0.26702   0.28743   0.33854   0.43555   0.47823
 Alpha virt. eigenvalues --    0.52184
          Condensed to atoms (all electrons):
               1          2          3          4          5          6
     1  C    4.164069   0.000000   0.000000   0.000000   0.000000   0.000000
     2  C    0.000000   5.634238   0.000000   0.000000   0.000000   0.000000
     3  O    0.000000   0.000000   3.519076   0.000000   0.000000   0.000000
     4  C    0.000000   0.000000   0.000000   5.610349   0.000000   0.000000
     5  C    0.000000   0.000000   0.000000   0.000000   4.233828   0.000000
     6  H    0.000000   0.000000   0.000000   0.000000   0.000000   0.762680
     7  H    0.000000   0.000000   0.000000   0.000000   0.000000   0.000000
     8  H    0.000000   0.000000   0.000000   0.000000   0.000000   0.000000
     9  H    0.000000   0.000000   0.000000   0.000000   0.000000   0.000000
               7          8          9
     1  C    0.000000   0.000000   0.000000
     2  C    0.000000   0.000000   0.000000
     3  O    0.000000   0.000000   0.000000
     4  C    0.000000   0.000000   0.000000
     5  C    0.000000   0.000000   0.000000
     6  H    0.000000   0.000000   0.000000
     7  H    0.643262   0.000000   0.000000
     8  H    0.000000   0.662033   0.000000
     9  H    0.000000   0.000000   0.770464
 Mulliken charges:
               1
     1  C   -0.164069
     2  C   -1.634238
     3  O    2.480924
     4  C   -1.610349
     5  C   -0.233828
     6  H    0.237320
     7  H    0.356738
     8  H    0.337967
     9  H    0.229536
 Sum of Mulliken charges =   0.00000
 Mulliken charges with hydrogens summed into heavy atoms:
               1
     1  C    0.065467
     2  C   -1.296271
     3  O    2.480924
     4  C   -1.253611
     5  C    0.003491
 Charge=              0.0000 electrons
 Dipole moment (field-independent basis, Debye):
    X=             -2.6182    Y=             -7.0223    Z=             -0.2125  Tot=              7.4975
 N-N= 1.015377640244D+02 E-N=-1.669740312167D+02  KE=-1.563551120355D+01
 Leave Link  601 at Thu Mar 17 10:21:19 2016, MaxMem=    33554432 cpu:         0.0
 (Enter /opt/g09/g09/l701.exe)
 Compute integral first derivatives.
 ... and contract with generalized density number  0.
 Leave Link  701 at Thu Mar 17 10:21:19 2016, MaxMem=    33554432 cpu:         0.0
 (Enter /opt/g09/g09/l702.exe)
 L702 exits ... SP integral derivatives will be done elsewhere.
 Leave Link  702 at Thu Mar 17 10:21:19 2016, MaxMem=    33554432 cpu:         0.0
 (Enter /opt/g09/g09/l703.exe)
 Compute integral first derivatives, UseDBF=F ICtDFT=           0.
 Integral derivatives from FoFJK, PRISM(SPDF).
 Calling FoFJK, ICntrl=      2127 FMM=F ISym2X=0 I1Cent= 0 IOpClX= 0 NMat=1 NMatS=1 NMatT=0.
 FoFJK:  IHMeth= 8 ICntrl=    2127 DoSepK=F KAlg= 0 I1Cent=   0 FoldK=F
 IRaf=         0 NMat=   1 IRICut=       1 DoRegI=T DoRafI=F ISym2E= 0.
 FoFCou: FMM=F IPFlag=           0 FMFlag=      100000 FMFlg1=         800
         NFxFlg=           0 DoJE=F BraDBF=F KetDBF=F FulRan=T
         wScrn=  0.000000 ICntrl=    2127 IOpCl=  0 I1Cent=           0 NGrid=           0
         NMat0=    1 NMatS0=      1 NMatT0=    0 NMatD0=    1 NMtDS0=    0 NMtDT0=    0
 Symmetry not used in FoFCou.
 Leave Link  703 at Thu Mar 17 10:21:19 2016, MaxMem=    33554432 cpu:         0.0
 (Enter /opt/g09/g09/l716.exe)
 Dipole        =-1.03006688D+00-2.76279989D+00-8.35974621D-02
 ***** Axes restored to original set *****
 -------------------------------------------------------------------
 Center     Atomic                   Forces (Hartrees/Bohr)
 Number     Number              X              Y              Z
 -------------------------------------------------------------------
      1        6          -0.024865831    0.161343725    0.026466028
      2        6          -0.011824706   -0.063681185   -0.013636138
      3        8          -0.000276626   -0.011969026    0.007057065
      4        6          -0.050656639    0.131344012   -0.012074493
      5        6           0.004098141   -0.163948426   -0.007557851
      6        1           0.045398123    0.031849338   -0.001249946
      7        1           0.017174532    0.007346363    0.005302057
      8        1          -0.014090903   -0.069366552    0.001101990
      9        1           0.035043911   -0.022918248   -0.005408712
 -------------------------------------------------------------------
 Cartesian Forces:  Max     0.163948426 RMS     0.057442060
 Leave Link  716 at Thu Mar 17 10:21:19 2016, MaxMem=    33554432 cpu:         0.0
 (Enter /opt/g09/g09/l103.exe)

 GradGradGradGradGradGradGradGradGradGradGradGradGradGradGradGradGradGrad
 Berny optimization.
 FormGI is forming the generalized inverse of G from B-inverse, IUseBI=4.
 Internal  Forces:  Max     0.080906718 RMS     0.033865259
 Search for a local minimum.
 Step number   1 out of a maximum of   48
 All quantities printed in internal units (Hartrees-Bohrs-Radians)
 RMS Force = .33865D-01 SwitMx=.10000D-02 MixMth= 1
 Mixed Optimization -- RFO/linear search
 Second derivative matrix not updated -- first step.
 ITU=  0
     Eigenvalues ---    0.01847   0.02142   0.02263   0.02384   0.02598
     Eigenvalues ---    0.02763   0.14658   0.15844   0.15955   0.15972
     Eigenvalues ---    0.22006   0.22923   0.33071   0.36498   0.38474
     Eigenvalues ---    0.40819   0.45135   0.45712   0.49916   0.52780
     Eigenvalues ---    0.61836
 RFO step:  Lambda=-9.82500825D-02 EMin= 1.84727117D-02
 Linear search not attempted -- first point.
 Maximum step size (   0.300) exceeded in Quadratic search.
    -- Step size scaled by   0.628
 Iteration  1 RMS(Cart)=  0.05945843 RMS(Int)=  0.00186287
 Iteration  2 RMS(Cart)=  0.00209151 RMS(Int)=  0.00050021
 Iteration  3 RMS(Cart)=  0.00000165 RMS(Int)=  0.00050021
 Iteration  4 RMS(Cart)=  0.00000000 RMS(Int)=  0.00050021
 ITry= 1 IFail=0 DXMaxC= 2.20D-01 DCOld= 1.00D+10 DXMaxT= 3.00D-01 DXLimC= 3.00D+00 Rises=F
 Variable       Old X    -DE/DX   Delta X   Delta X   Delta X     New X
                                 (Linear)    (Quad)   (Total)
    R1        2.59562   0.03536   0.00000   0.03324   0.03352   2.62913
    R2        2.74258  -0.08091   0.00000  -0.11592  -0.11597   2.62661
    R3        2.00381   0.04028   0.00000   0.05234   0.05234   2.05615
    R4        2.57438   0.05935   0.00000   0.06519   0.06542   2.63979
    R5        1.91157   0.06861   0.00000   0.07752   0.07752   1.98909
    R6        2.47351   0.07269   0.00000   0.06710   0.06696   2.54047
    R7        2.56416   0.05049   0.00000   0.04940   0.04908   2.61324
    R8        2.08927  -0.00061   0.00000  -0.00090  -0.00090   2.08837
    R9        1.97156   0.05535   0.00000   0.06859   0.06859   2.04014
    A1        1.81462   0.04947   0.00000   0.07774   0.07743   1.89206
    A2        2.18127  -0.01945   0.00000  -0.02084  -0.02115   2.16013
    A3        2.23447  -0.02582   0.00000  -0.03873  -0.03972   2.19475
    A4        1.91096  -0.05217   0.00000  -0.10102  -0.10063   1.81033
    A5        2.27953   0.00991   0.00000   0.01144   0.01118   2.29071
    A6        2.08985   0.04246   0.00000   0.09072   0.09045   2.18030
    A7        1.90783   0.02327   0.00000   0.07038   0.07050   1.97834
    A8        1.92104  -0.05065   0.00000  -0.08894  -0.08934   1.83170
    A9        2.08796   0.04409   0.00000   0.09096   0.09116   2.17911
   A10        2.26447   0.00651   0.00000  -0.00056  -0.00027   2.26420
   A11        1.86611   0.03067   0.00000   0.04487   0.04453   1.91063
   A12        2.19640  -0.01716   0.00000  -0.02667  -0.02650   2.16990
   A13        2.21942  -0.01340   0.00000  -0.01776  -0.01764   2.20178
    D1        0.08248  -0.00640   0.00000  -0.03134  -0.03061   0.05187
    D2        3.14096  -0.00195   0.00000  -0.01151  -0.01183   3.12913
    D3        2.90261   0.00294   0.00000   0.01724   0.01869   2.92130
    D4       -0.32209   0.00740   0.00000   0.03707   0.03747  -0.28462
    D5       -0.05048   0.00271   0.00000   0.01544   0.01624  -0.03424
    D6        3.04043   0.00478   0.00000   0.02415   0.02437   3.06480
    D7       -2.85721  -0.00935   0.00000  -0.04078  -0.03968  -2.89688
    D8        0.23370  -0.00728   0.00000  -0.03208  -0.03154   0.20216
    D9       -0.08763   0.00729   0.00000   0.03320   0.03267  -0.05497
   D10        3.12661   0.00455   0.00000   0.01893   0.01900  -3.13757
   D11        0.05309  -0.00216   0.00000  -0.01721  -0.01822   0.03486
   D12        3.05957  -0.00264   0.00000  -0.00842  -0.00888   3.05069
   D13       -0.00046  -0.00083   0.00000   0.00052   0.00069   0.00023
   D14       -3.09050  -0.00282   0.00000  -0.00804  -0.00735  -3.09785
   D15       -2.98918  -0.00332   0.00000  -0.01748  -0.01794  -3.00712
   D16        0.20396  -0.00531   0.00000  -0.02604  -0.02598   0.17799
         Item               Value     Threshold  Converged?
 Maximum Force            0.080907     0.000450     NO 
 RMS     Force            0.033865     0.000300     NO 
 Maximum Displacement     0.219663     0.001800     NO 
 RMS     Displacement     0.059384     0.001200     NO 
 Predicted change in Energy=-4.717265D-02
 Lowest energy point so far.  Saving SCF results.
 GradGradGradGradGradGradGradGradGradGradGradGradGradGradGradGradGradGrad

 Leave Link  103 at Thu Mar 17 10:21:19 2016, MaxMem=    33554432 cpu:         0.0
 (Enter /opt/g09/g09/l202.exe)
                          Input orientation:                          
 ---------------------------------------------------------------------
 Center     Atomic      Atomic             Coordinates (Angstroms)
 Number     Number       Type             X           Y           Z
 ---------------------------------------------------------------------
      1          6           0        0.945009   -0.693619   -0.056451
      2          6           0       -0.369087   -1.142935    0.026723
      3          8           0       -1.120674    0.034224    0.054979
      4          6           0       -0.367086    1.147473    0.063691
      5          6           0        0.937925    0.695396   -0.006243
      6          1           0        1.826388    1.308272    0.017212
      7          1           0       -0.761886    2.177872    0.002848
      8          1           0       -0.772331   -2.115106    0.012511
      9          1           0        1.813046   -1.330941    0.099194
 ---------------------------------------------------------------------
                    Distance matrix (angstroms):
                    1          2          3          4          5
     1  C    0.000000
     2  C    1.391277   0.000000
     3  O    2.192993   1.396919   0.000000
     4  C    2.263990   2.290707   1.344357   0.000000
     5  C    1.389940   2.255843   2.163037   1.382866   0.000000
     6  H    2.188566   3.290686   3.210887   2.199850   1.079598
     7  H    3.341028   3.344042   2.174092   1.105120   2.255477
     8  H    2.230390   1.052580   2.177789   3.288049   3.290023
     9  H    1.088068   2.191416   3.236099   3.301026   2.209750
                    6          7          8          9
     6  H    0.000000
     7  H    2.730489   0.000000
     8  H    4.298008   4.293001   0.000000
     9  H    2.640520   4.353312   2.703072   0.000000
 Stoichiometry    C4H4O
 Framework group  C1[X(C4H4O)]
 Deg. of freedom    21
 Full point group                 C1      NOp   1
 RotChk:  IX=0 Diff= 2.53D-01
 Largest Abelian subgroup         C1      NOp   1
 Largest concise Abelian subgroup C1      NOp   1
                         Standard orientation:                         
 ---------------------------------------------------------------------
 Center     Atomic      Atomic             Coordinates (Angstroms)
 Number     Number       Type             X           Y           Z
 ---------------------------------------------------------------------
      1          6           0        0.787793    0.877573   -0.043566
      2          6           0        1.113858   -0.474009    0.007019
      3          8           0       -0.127424   -1.114775    0.002736
      4          6           0       -1.167027   -0.262625    0.021813
      5          6           0       -0.596546    0.996755   -0.007050
      6          1           0       -1.125746    1.936796    0.035405
      7          1           0       -2.228422   -0.559312   -0.060085
      8          1           0        2.045128   -0.964316   -0.009084
      9          1           0        1.499960    1.678862    0.142573
 ---------------------------------------------------------------------
 Rotational constants (GHZ):      9.6465731      9.0140310      4.6642022
 Leave Link  202 at Thu Mar 17 10:21:19 2016, MaxMem=    33554432 cpu:         0.0
 (Enter /opt/g09/g09/l301.exe)

 Semi-emprical parameters in input format:
 Method=8 CoreType=1 PeptideFC=0.0107032408 RIJScale=0.5646683443
 ****
 H       
 PQN=1 NValence=1 F0ss=0.4902250734 ZetaOverlap=1.2625510943 U=-0.4601465906
 Beta=-0.2224699164 CoreKO=1.0291173295 KON=0,0,0,1.1055276885 KON=1,0,1,1.0085272650
 KON=0,1,1,1.0259108377 KON=2,1,1,1.0589197790 EISol=-0.4188110042 EHeat=0.0830298228
 Alpha=1.2572081350
 GCore=0.0081342693,1.4505257765,2.1160306407
 GCore=0.0003696981,1.5179527606,3.3888367972
 GCore=-0.0011992083,0.5154975422,4.0399040163
 ****
 C       
 PQN=2,2 NValence=4 F0ss=0.4612714573 F0sp=0.4215147623 F0pp=0.3269054842 F2pp=0.2085460392
 G1sp=0.3096434975
 ZetaOverlap=2.1646468441,1.5569944789
 U=-1.5334837513,-1.4974702043
 Beta=-0.6252100258,-0.3068862367 DDN=0,1,0.6984301211 DDN=1,1,0.7702570468
 CoreKO=1.3151611645 KON=0,0,0,1.2382550940 KON=1,0,1,0.8617144622 KON=0,1,1,1.0637633139
 KON=2,1,1,0.8576090188 EISol=-4.4398989268 EHeat=0.2723305520 Alpha=1.3368170489
 DipHyp=1.3967798796
 GCore=0.0009704188,1.2981166851,3.4515465450
 GCore=0.0028863397,1.5385714962,3.2100917158
 GCore=-0.0014099133,1.4874457386,3.8453859100
 GCore=-0.0000860662,1.3789752971,5.2587410456
 ****
 O       
 PQN=2,2 NValence=6 F0ss=0.5359690226 F0sp=0.5321302318 F0pp=0.4840519312 F2pp=0.2639984521
 G1sp=0.4450193053
 ZetaOverlap=2.8176196354,2.2908378184
 U=-3.6356959050,-2.4160313669
 Beta=-1.1447216884,-1.0701077288 DDN=0,1,0.5129696429 DDN=1,1,0.4392220846
 CoreKO=0.9737932452 KON=0,0,0,0.8111546111 KON=1,0,1,0.5440307728 KON=0,1,1,0.8528423668
 KON=2,1,1,0.6049512231 EISol=-11.6164441184 EHeat=0.0949133088 Alpha=2.2596482987
 DipHyp=1.0258802626
 GCore=0.0203637789,1.7341302153,2.0999404139
 GCore=0.0054396795,2.1476287035,2.3942679546
 ****
 
 Standard basis: VSTO-6G (5D, 7F)
 Ernie: Thresh=  0.10000D-02 Tol=  0.10000D-05 Strict=F.
  NNHCO=     0 NNPyr=     0 NCTC=     0               EPep=         0.000000000
    EC=        65.684954856  ECS=         2.152052212   EG=         0.498397848
   EHC=         0.000000000  EAt=       -31.051283842  AtH=         1.516354808
 EPDDG=         0.000000000  ECC=        68.335404917 EAtT=        32.567638650
 There are    24 symmetry adapted cartesian basis functions of A   symmetry.
 There are    24 symmetry adapted basis functions of A   symmetry.
    24 basis functions,   144 primitive gaussians,    24 cartesian basis functions
    13 alpha electrons       13 beta electrons
       nuclear repulsion energy       100.9030435673 Hartrees.
 IExCor=    0 DFT=F Ex=HF Corr=None ExCW=0 ScaHFX=  1.000000
 ScaDFX=  1.000000  1.000000  1.000000  1.000000 ScalE2=  1.000000  1.000000
 IRadAn=      0 IRanWt=     -1 IRanGd=            0 ICorTp=0 IEmpDi=  4
 Integral buffers will be    131072 words long.
 Regular integral format.
 Two-electron integral symmetry is turned off.
 Leave Link  301 at Thu Mar 17 10:21:19 2016, MaxMem=    33554432 cpu:         0.0
 (Enter /opt/g09/g09/l302.exe)
 Do NDO integrals.
 NPDir=0 NMtPBC=     1 NCelOv=     1 NCel=       1 NClECP=     1 NCelD=      1
         NCelK=      1 NCelE2=     1 NClLst=     1 CellRange=     0.0.
 One-electron integrals computed using PRISM.
 NBasis=    24 RedAO= F EigKep=  0.00D+00  NBF=    24
 NBsUse=    24 1.00D-04 EigRej=  0.00D+00 NBFU=    24
 Leave Link  302 at Thu Mar 17 10:21:19 2016, MaxMem=    33554432 cpu:         0.0
 (Enter /opt/g09/g09/l303.exe)
 DipDrv:  MaxL=1.
 Leave Link  303 at Thu Mar 17 10:21:19 2016, MaxMem=    33554432 cpu:         0.0
 (Enter /opt/g09/g09/l401.exe)
 Initial guess from the checkpoint file:  "/opt/g09/scratch/Gau-18793.chk"
 B after Tr=     0.000000    0.000000    0.000000
         Rot=    0.995995    0.000209   -0.000201   -0.089411 Ang=  10.26 deg.
 Guess basis will be translated and rotated to current coordinates.
 JPrj=0 DoOrth=T DoCkMO=T.
 Leave Link  401 at Thu Mar 17 10:21:19 2016, MaxMem=    33554432 cpu:         0.0
 (Enter /opt/g09/g09/l502.exe)
 Closed shell SCF:
 Using DIIS extrapolation, IDIIS=  1040.
 Overlap will be assumed to be unity.
 Two-electron integral symmetry not used.
 Keep J ints in memory in canonical form, NReq=888082.
 IVT=       79475 IEndB=       79475 NGot=    33554432 MDV=    33473473
 LenX=    33473473 LenY=    33472456
 Requested convergence on RMS density matrix=1.00D-08 within 128 cycles.
 Requested convergence on MAX density matrix=1.00D-06.
 Requested convergence on             energy=1.00D-06.
 No special actions if energy rises.
 FoFCou: FMM=F IPFlag=           0 FMFlag=           0 FMFlg1=           0
         NFxFlg=           0 DoJE=F BraDBF=F KetDBF=F FulRan=T
         wScrn=  0.000000 ICntrl=     600 IOpCl=  2 I1Cent=           0 NGrid=           0
         NMat0=    1 NMatS0=     54 NMatT0=    0 NMatD0=    1 NMtDS0=    0 NMtDT0=    0
 Symmetry not used in FoFCou.

 Cycle   1  Pass 1  IDiag  1:
 E=  1.23536278689879    
 DIIS: error= 7.76D-03 at cycle   1 NSaved=   1.
 NSaved= 1 IEnMin= 1 EnMin=  1.23536278689879     IErMin= 1 ErrMin= 7.76D-03
 ErrMax= 7.76D-03  0.00D+00 EMaxC= 1.00D-01 BMatC= 2.53D-03 BMatP= 2.53D-03
 IDIUse=3 WtCom= 9.22D-01 WtEn= 7.76D-02
 Coeff-Com:  0.100D+01
 Coeff-En:   0.100D+01
 Coeff:      0.100D+01
 GapD=    2.000 DampG=2.000 DampE=1.000 DampFc=2.0000 IDamp=-1.
 RMSDP=2.96D-03 MaxDP=1.13D-02              OVMax= 0.00D+00

 Cycle   2  Pass 1  IDiag  3:
 E=  1.22918441757697     Delta-E=       -0.006178369322 Rises=F Damp=F
 DIIS: error= 1.91D-03 at cycle   2 NSaved=   2.
 NSaved= 2 IEnMin= 2 EnMin=  1.22918441757697     IErMin= 2 ErrMin= 1.91D-03
 ErrMax= 1.91D-03  0.00D+00 EMaxC= 1.00D-01 BMatC= 1.86D-04 BMatP= 2.53D-03
 IDIUse=3 WtCom= 9.81D-01 WtEn= 1.91D-02
 Coeff-Com: -0.325D+00 0.133D+01
 Coeff-En:   0.000D+00 0.100D+01
 Coeff:     -0.319D+00 0.132D+01
 Gap=     0.404 Goal=   None    Shift=    0.000
 RMSDP=1.23D-03 MaxDP=5.14D-03 DE=-6.18D-03 OVMax= 6.58D-03

 Cycle   3  Pass 1  IDiag  3:
 E=  1.22856666310084     Delta-E=       -0.000617754476 Rises=F Damp=F
 DIIS: error= 2.62D-04 at cycle   3 NSaved=   3.
 NSaved= 3 IEnMin= 3 EnMin=  1.22856666310084     IErMin= 3 ErrMin= 2.62D-04
 ErrMax= 2.62D-04  0.00D+00 EMaxC= 1.00D-01 BMatC= 5.09D-06 BMatP= 1.86D-04
 IDIUse=3 WtCom= 9.97D-01 WtEn= 2.62D-03
 Coeff-Com:  0.134D+00-0.606D+00 0.147D+01
 Coeff-En:   0.000D+00 0.000D+00 0.100D+01
 Coeff:      0.134D+00-0.605D+00 0.147D+01
 Gap=     0.404 Goal=   None    Shift=    0.000
 RMSDP=2.86D-04 MaxDP=1.29D-03 DE=-6.18D-04 OVMax= 2.13D-03

 Cycle   4  Pass 1  IDiag  3:
 E=  1.22854215445416     Delta-E=       -0.000024508647 Rises=F Damp=F
 DIIS: error= 6.85D-05 at cycle   4 NSaved=   4.
 NSaved= 4 IEnMin= 4 EnMin=  1.22854215445416     IErMin= 4 ErrMin= 6.85D-05
 ErrMax= 6.85D-05  0.00D+00 EMaxC= 1.00D-01 BMatC= 2.33D-07 BMatP= 5.09D-06
 IDIUse=1 WtCom= 1.00D+00 WtEn= 0.00D+00
 Coeff-Com: -0.523D-01 0.244D+00-0.716D+00 0.153D+01
 Coeff:     -0.523D-01 0.244D+00-0.716D+00 0.153D+01
 Gap=     0.404 Goal=   None    Shift=    0.000
 RMSDP=7.19D-05 MaxDP=3.87D-04 DE=-2.45D-05 OVMax= 6.58D-04

 Cycle   5  Pass 1  IDiag  3:
 E=  1.22854084978346     Delta-E=       -0.000001304671 Rises=F Damp=F
 DIIS: error= 1.45D-05 at cycle   5 NSaved=   5.
 NSaved= 5 IEnMin= 5 EnMin=  1.22854084978346     IErMin= 5 ErrMin= 1.45D-05
 ErrMax= 1.45D-05  0.00D+00 EMaxC= 1.00D-01 BMatC= 1.08D-08 BMatP= 2.33D-07
 IDIUse=1 WtCom= 1.00D+00 WtEn= 0.00D+00
 Coeff-Com:  0.177D-01-0.828D-01 0.258D+00-0.694D+00 0.150D+01
 Coeff:      0.177D-01-0.828D-01 0.258D+00-0.694D+00 0.150D+01
 Gap=     0.404 Goal=   None    Shift=    0.000
 RMSDP=1.61D-05 MaxDP=8.70D-05 DE=-1.30D-06 OVMax= 1.51D-04

 Cycle   6  Pass 1  IDiag  3:
 E=  1.22854078819950     Delta-E=       -0.000000061584 Rises=F Damp=F
 DIIS: error= 3.42D-06 at cycle   6 NSaved=   6.
 NSaved= 6 IEnMin= 6 EnMin=  1.22854078819950     IErMin= 6 ErrMin= 3.42D-06
 ErrMax= 3.42D-06  0.00D+00 EMaxC= 1.00D-01 BMatC= 4.26D-10 BMatP= 1.08D-08
 IDIUse=1 WtCom= 1.00D+00 WtEn= 0.00D+00
 Coeff-Com: -0.249D-02 0.117D-01-0.377D-01 0.117D+00-0.399D+00 0.131D+01
 Coeff:     -0.249D-02 0.117D-01-0.377D-01 0.117D+00-0.399D+00 0.131D+01
 Gap=     0.404 Goal=   None    Shift=    0.000
 RMSDP=2.96D-06 MaxDP=2.23D-05 DE=-6.16D-08 OVMax= 1.89D-05

 Cycle   7  Pass 1  IDiag  3:
 E=  1.22854078572567     Delta-E=       -0.000000002474 Rises=F Damp=F
 DIIS: error= 1.52D-06 at cycle   7 NSaved=   7.
 NSaved= 7 IEnMin= 7 EnMin=  1.22854078572567     IErMin= 7 ErrMin= 1.52D-06
 ErrMax= 1.52D-06  0.00D+00 EMaxC= 1.00D-01 BMatC= 5.43D-11 BMatP= 4.26D-10
 IDIUse=1 WtCom= 1.00D+00 WtEn= 0.00D+00
 Coeff-Com:  0.671D-03-0.313D-02 0.996D-02-0.324D-01 0.135D+00-0.669D+00
 Coeff-Com:  0.156D+01
 Coeff:      0.671D-03-0.313D-02 0.996D-02-0.324D-01 0.135D+00-0.669D+00
 Coeff:      0.156D+01
 Gap=     0.404 Goal=   None    Shift=    0.000
 RMSDP=1.20D-06 MaxDP=1.22D-05 DE=-2.47D-09 OVMax= 1.25D-05

 Cycle   8  Pass 1  IDiag  3:
 E=  1.22854078532714     Delta-E=       -0.000000000399 Rises=F Damp=F
 DIIS: error= 8.02D-07 at cycle   8 NSaved=   8.
 NSaved= 8 IEnMin= 8 EnMin=  1.22854078532714     IErMin= 8 ErrMin= 8.02D-07
 ErrMax= 8.02D-07  0.00D+00 EMaxC= 1.00D-01 BMatC= 1.17D-11 BMatP= 5.43D-11
 IDIUse=1 WtCom= 1.00D+00 WtEn= 0.00D+00
 Coeff-Com:  0.818D-04-0.389D-03 0.102D-02 0.183D-02-0.502D-01 0.452D+00
 Coeff-Com: -0.161D+01 0.221D+01
 Coeff:      0.818D-04-0.389D-03 0.102D-02 0.183D-02-0.502D-01 0.452D+00
 Coeff:     -0.161D+01 0.221D+01
 Gap=     0.404 Goal=   None    Shift=    0.000
 RMSDP=9.13D-07 MaxDP=1.03D-05 DE=-3.99D-10 OVMax= 1.08D-05

 Cycle   9  Pass 1  IDiag  3:
 E=  1.22854078520827     Delta-E=       -0.000000000119 Rises=F Damp=F
 DIIS: error= 1.74D-07 at cycle   9 NSaved=   9.
 NSaved= 9 IEnMin= 9 EnMin=  1.22854078520827     IErMin= 9 ErrMin= 1.74D-07
 ErrMax= 1.74D-07  0.00D+00 EMaxC= 1.00D-01 BMatC= 6.37D-13 BMatP= 1.17D-11
 IDIUse=1 WtCom= 1.00D+00 WtEn= 0.00D+00
 Coeff-Com: -0.289D-04 0.141D-03-0.423D-03-0.483D-03 0.188D-01-0.181D+00
 Coeff-Com:  0.692D+00-0.117D+01 0.164D+01
 Coeff:     -0.289D-04 0.141D-03-0.423D-03-0.483D-03 0.188D-01-0.181D+00
 Coeff:      0.692D+00-0.117D+01 0.164D+01
 Gap=     0.404 Goal=   None    Shift=    0.000
 RMSDP=2.19D-07 MaxDP=2.52D-06 DE=-1.19D-10 OVMax= 2.65D-06

 Cycle  10  Pass 1  IDiag  3:
 E=  1.22854078520257     Delta-E=       -0.000000000006 Rises=F Damp=F
 DIIS: error= 1.33D-08 at cycle  10 NSaved=  10.
 NSaved=10 IEnMin=10 EnMin=  1.22854078520257     IErMin=10 ErrMin= 1.33D-08
 ErrMax= 1.33D-08  0.00D+00 EMaxC= 1.00D-01 BMatC= 1.17D-14 BMatP= 6.37D-13
 IDIUse=1 WtCom= 1.00D+00 WtEn= 0.00D+00
 Coeff-Com:  0.119D-04-0.575D-04 0.179D-03-0.106D-04-0.510D-02 0.524D-01
 Coeff-Com: -0.207D+00 0.365D+00-0.611D+00 0.141D+01
 Coeff:      0.119D-04-0.575D-04 0.179D-03-0.106D-04-0.510D-02 0.524D-01
 Coeff:     -0.207D+00 0.365D+00-0.611D+00 0.141D+01
 Gap=     0.404 Goal=   None    Shift=    0.000
 RMSDP=1.87D-08 MaxDP=1.74D-07 DE=-5.70D-12 OVMax= 1.90D-07

 Cycle  11  Pass 1  IDiag  3:
 E=  1.22854078520213     Delta-E=        0.000000000000 Rises=F Damp=F
 DIIS: error= 2.85D-09 at cycle  11 NSaved=  11.
 NSaved=11 IEnMin=11 EnMin=  1.22854078520213     IErMin=11 ErrMin= 2.85D-09
 ErrMax= 2.85D-09  0.00D+00 EMaxC= 1.00D-01 BMatC= 3.36D-16 BMatP= 1.17D-14
 IDIUse=1 WtCom= 1.00D+00 WtEn= 0.00D+00
 Coeff-Com: -0.388D-05 0.187D-04-0.578D-04-0.235D-04 0.197D-02-0.197D-01
 Coeff-Com:  0.771D-01-0.136D+00 0.230D+00-0.599D+00 0.145D+01
 Coeff:     -0.388D-05 0.187D-04-0.578D-04-0.235D-04 0.197D-02-0.197D-01
 Coeff:      0.771D-01-0.136D+00 0.230D+00-0.599D+00 0.145D+01
 Gap=     0.404 Goal=   None    Shift=    0.000
 RMSDP=2.61D-09 MaxDP=1.28D-08 DE=-4.41D-13 OVMax= 1.80D-08

 Cycle  12  Pass 2  IDiag  1:
 SCF Done:  E(RAM1) =   1.22854078520     A.U. after   12 cycles
            NFock= 11  Conv=0.26D-08     -V/T= 1.0791
 KE=-1.553011250059D+01 PE=-1.659330814380D+02 EE= 8.178869115642D+01
 Leave Link  502 at Thu Mar 17 10:21:19 2016, MaxMem=    33554432 cpu:         0.0
 (Enter /opt/g09/g09/l701.exe)
 Compute integral first derivatives.
 ... and contract with generalized density number  0.
 Leave Link  701 at Thu Mar 17 10:21:19 2016, MaxMem=    33554432 cpu:         0.0
 (Enter /opt/g09/g09/l702.exe)
 L702 exits ... SP integral derivatives will be done elsewhere.
 Leave Link  702 at Thu Mar 17 10:21:19 2016, MaxMem=    33554432 cpu:         0.0
 (Enter /opt/g09/g09/l703.exe)
 Compute integral first derivatives, UseDBF=F ICtDFT=           0.
 Integral derivatives from FoFJK, PRISM(SPDF).
 Calling FoFJK, ICntrl=      2127 FMM=F ISym2X=0 I1Cent= 0 IOpClX= 0 NMat=1 NMatS=1 NMatT=0.
 FoFJK:  IHMeth= 8 ICntrl=    2127 DoSepK=F KAlg= 0 I1Cent=   0 FoldK=F
 IRaf=         0 NMat=   1 IRICut=       1 DoRegI=T DoRafI=F ISym2E= 0.
 FoFCou: FMM=F IPFlag=           0 FMFlag=      100000 FMFlg1=         800
         NFxFlg=           0 DoJE=F BraDBF=F KetDBF=F FulRan=T
         wScrn=  0.000000 ICntrl=    2127 IOpCl=  0 I1Cent=           0 NGrid=           0
         NMat0=    1 NMatS0=      1 NMatT0=    0 NMatD0=    1 NMtDS0=    0 NMtDT0=    0
 Symmetry not used in FoFCou.
 Leave Link  703 at Thu Mar 17 10:21:19 2016, MaxMem=    33554432 cpu:         0.0
 (Enter /opt/g09/g09/l716.exe)
 Dipole        =-4.61545191D-01-2.66979067D+00-4.40515290D-02
 ***** Axes restored to original set *****
 -------------------------------------------------------------------
 Center     Atomic                   Forces (Hartrees/Bohr)
 Number     Number              X              Y              Z
 -------------------------------------------------------------------
      1        6          -0.021640951    0.106571849    0.022635408
      2        6          -0.012243775   -0.025602948   -0.009620641
      3        8           0.010855453   -0.016018524    0.004495699
      4        6          -0.029527554    0.072090490   -0.012287200
      5        6          -0.003637309   -0.110412047   -0.002377289
      6        1           0.023504922    0.018880169   -0.001672762
      7        1           0.013574810   -0.001340702    0.005039899
      8        1          -0.001110068   -0.029084334    0.000756403
      9        1           0.020224472   -0.015083953   -0.006969517
 -------------------------------------------------------------------
 Cartesian Forces:  Max     0.110412047 RMS     0.035858008
 Leave Link  716 at Thu Mar 17 10:21:19 2016, MaxMem=    33554432 cpu:         0.0
 (Enter /opt/g09/g09/l103.exe)

 GradGradGradGradGradGradGradGradGradGradGradGradGradGradGradGradGradGrad
 Berny optimization.
 Using GEDIIS/GDIIS optimizer.
 FormGI is forming the generalized inverse of G from B-inverse, IUseBI=4.
 Internal  Forces:  Max     0.063427225 RMS     0.018344494
 Search for a local minimum.
 Step number   2 out of a maximum of   48
 All quantities printed in internal units (Hartrees-Bohrs-Radians)
 RMS Force = .18344D-01 SwitMx=.10000D-02 MixMth= 1
 Mixed Optimization -- RFO/linear search
 Update second derivatives using D2CorX and points    1    2
 DE= -4.73D-02 DEPred=-4.72D-02 R= 1.00D+00
 TightC=F SS=  1.41D+00  RLast= 3.15D-01 DXNew= 5.0454D-01 9.4420D-01
 Trust test= 1.00D+00 RLast= 3.15D-01 DXMaxT set to 5.05D-01
 ITU=  1  0
 Use linear search instead of GDIIS.
     Eigenvalues ---    0.01826   0.02126   0.02231   0.02373   0.02594
     Eigenvalues ---    0.02762   0.15114   0.15593   0.15925   0.16136
     Eigenvalues ---    0.21907   0.23467   0.30410   0.33314   0.38422
     Eigenvalues ---    0.40766   0.45498   0.47053   0.50051   0.57286
     Eigenvalues ---    0.63130
 RFO step:  Lambda=-1.42746028D-02 EMin= 1.82626990D-02
 Quartic linear search produced a step of  1.25901.
 Iteration  1 RMS(Cart)=  0.07708590 RMS(Int)=  0.01333990
 Iteration  2 RMS(Cart)=  0.01649416 RMS(Int)=  0.00324325
 Iteration  3 RMS(Cart)=  0.00007304 RMS(Int)=  0.00324242
 Iteration  4 RMS(Cart)=  0.00000023 RMS(Int)=  0.00324242
 ITry= 1 IFail=0 DXMaxC= 2.06D-01 DCOld= 1.00D+10 DXMaxT= 5.05D-01 DXLimC= 3.00D+00 Rises=F
 Variable       Old X    -DE/DX   Delta X   Delta X   Delta X     New X
                                 (Linear)    (Quad)   (Total)
    R1        2.62913   0.01295   0.04220  -0.02508   0.01861   2.64774
    R2        2.62661  -0.06343  -0.14601  -0.12732  -0.27174   2.35487
    R3        2.05615   0.02397   0.06589   0.01906   0.08496   2.14111
    R4        2.63979   0.01745   0.08236  -0.05405   0.02738   2.66718
    R5        1.98909   0.02728   0.09760  -0.03726   0.06034   2.04943
    R6        2.54047   0.03395   0.08430  -0.00952   0.07299   2.61345
    R7        2.61324   0.02225   0.06179  -0.01301   0.04857   2.66181
    R8        2.08837  -0.00638  -0.00113  -0.03937  -0.04050   2.04787
    R9        2.04014   0.03003   0.08635   0.00917   0.09552   2.13566
    A1        1.89206   0.02634   0.09749   0.00985   0.10220   1.99425
    A2        2.16013  -0.01214  -0.02662  -0.00864  -0.04609   2.11404
    A3        2.19475  -0.01181  -0.05001   0.03974  -0.02116   2.17359
    A4        1.81033  -0.02507  -0.12670   0.00483  -0.12007   1.69026
    A5        2.29071   0.00277   0.01408  -0.02305  -0.01012   2.28059
    A6        2.18030   0.02238   0.11388   0.01860   0.13141   2.31171
    A7        1.97834   0.00974   0.08877  -0.01351   0.07398   2.05232
    A8        1.83170  -0.02827  -0.11248  -0.01583  -0.13054   1.70116
    A9        2.17911   0.02637   0.11477   0.04800   0.16202   2.34113
   A10        2.26420   0.00208  -0.00034  -0.02234  -0.02375   2.24045
   A11        1.91063   0.01750   0.05606   0.01739   0.07539   1.98602
   A12        2.16990  -0.00673  -0.03337   0.02976  -0.00522   2.16468
   A13        2.20178  -0.01071  -0.02221  -0.04554  -0.06932   2.13246
    D1        0.05187  -0.00341  -0.03854  -0.03372  -0.07115  -0.01928
    D2        3.12913  -0.00146  -0.01490  -0.02607  -0.04191   3.08721
    D3        2.92130   0.00417   0.02353   0.12325   0.14850   3.06980
    D4       -0.28462   0.00612   0.04718   0.13090   0.17773  -0.10689
    D5       -0.03424   0.00183   0.02045   0.00940   0.03231  -0.00193
    D6        3.06480   0.00310   0.03069   0.04728   0.08179  -3.13659
    D7       -2.89688  -0.00606  -0.04995  -0.14185  -0.19207  -3.08895
    D8        0.20216  -0.00479  -0.03971  -0.10396  -0.14259   0.05957
    D9       -0.05497   0.00416   0.04113   0.05088   0.09135   0.03638
   D10       -3.13757   0.00315   0.02392   0.04582   0.06844  -3.06913
   D11        0.03486  -0.00209  -0.02294  -0.04512  -0.07220  -0.03733
   D12        3.05069  -0.00128  -0.01118   0.02733   0.02213   3.07282
   D13        0.00023  -0.00001   0.00086   0.02103   0.02230   0.02252
   D14       -3.09785  -0.00145  -0.00925  -0.02005  -0.02800  -3.12585
   D15       -3.00712  -0.00311  -0.02259  -0.06338  -0.08316  -3.09029
   D16        0.17799  -0.00456  -0.03271  -0.10447  -0.13347   0.04452
         Item               Value     Threshold  Converged?
 Maximum Force            0.063427     0.000450     NO 
 RMS     Force            0.018344     0.000300     NO 
 Maximum Displacement     0.206156     0.001800     NO 
 RMS     Displacement     0.081728     0.001200     NO 
 Predicted change in Energy=-2.624443D-02
 Lowest energy point so far.  Saving SCF results.
 GradGradGradGradGradGradGradGradGradGradGradGradGradGradGradGradGradGrad

 Leave Link  103 at Thu Mar 17 10:21:19 2016, MaxMem=    33554432 cpu:         0.0
 (Enter /opt/g09/g09/l202.exe)
                          Input orientation:                          
 ---------------------------------------------------------------------
 Center     Atomic      Atomic             Coordinates (Angstroms)
 Number     Number       Type             X           Y           Z
 ---------------------------------------------------------------------
      1          6           0        0.884131   -0.616108    0.016559
      2          6           0       -0.395602   -1.186372    0.031721
      3          8           0       -1.119065    0.024899    0.070471
      4          6           0       -0.396835    1.203755    0.034179
      5          6           0        0.889502    0.630019    0.019060
      6          1           0        1.828707    1.258417    0.003682
      7          1           0       -0.665972    2.252784   -0.004325
      8          1           0       -0.707434   -2.224199   -0.011152
      9          1           0        1.813875   -1.262559    0.054267
 ---------------------------------------------------------------------
                    Distance matrix (angstroms):
                    1          2          3          4          5
     1  C    0.000000
     2  C    1.401124   0.000000
     3  O    2.103946   1.411410   0.000000
     4  C    2.225552   2.390128   1.382980   0.000000
     5  C    1.246141   2.225069   2.098370   1.408568   0.000000
     6  H    2.099102   3.305348   3.196152   2.226422   1.130144
     7  H    3.260950   3.449956   2.274722   1.083688   2.247980
     8  H    2.262698   1.084510   2.287912   3.442295   3.270730
     9  H    1.133025   2.210905   3.203115   3.312151   2.106551
                    6          7          8          9
     6  H    0.000000
     7  H    2.685564   0.000000
     8  H    4.308229   4.477180   0.000000
     9  H    2.521527   4.302408   2.699264   0.000000
 Stoichiometry    C4H4O
 Framework group  C1[X(C4H4O)]
 Deg. of freedom    21
 Full point group                 C1      NOp   1
 RotChk:  IX=2 Diff= 1.12D-01
 Largest Abelian subgroup         C1      NOp   1
 Largest concise Abelian subgroup C1      NOp   1
                         Standard orientation:                         
 ---------------------------------------------------------------------
 Center     Atomic      Atomic             Coordinates (Angstroms)
 Number     Number       Type             X           Y           Z
 ---------------------------------------------------------------------
      1          6           0        0.640158    0.897534   -0.003245
      2          6           0        1.192452   -0.390134   -0.008544
      3          8           0       -0.028818   -1.097096    0.019430
      4          6           0       -1.197457   -0.357956   -0.004868
      5          6           0       -0.605771    0.920304   -0.000014
      6          1           0       -1.220961    1.868338   -0.000266
      7          1           0       -2.250163   -0.611745   -0.047064
      8          1           0        2.225798   -0.715746   -0.056862
      9          1           0        1.299575    1.817430    0.048773
 ---------------------------------------------------------------------
 Rotational constants (GHZ):     10.0835914      8.8784296      4.7226500
 Leave Link  202 at Thu Mar 17 10:21:19 2016, MaxMem=    33554432 cpu:         0.0
 (Enter /opt/g09/g09/l301.exe)

 Semi-emprical parameters in input format:
 Method=8 CoreType=1 PeptideFC=0.0107032408 RIJScale=0.5646683443
 ****
 H       
 PQN=1 NValence=1 F0ss=0.4902250734 ZetaOverlap=1.2625510943 U=-0.4601465906
 Beta=-0.2224699164 CoreKO=1.0291173295 KON=0,0,0,1.1055276885 KON=1,0,1,1.0085272650
 KON=0,1,1,1.0259108377 KON=2,1,1,1.0589197790 EISol=-0.4188110042 EHeat=0.0830298228
 Alpha=1.2572081350
 GCore=0.0081342693,1.4505257765,2.1160306407
 GCore=0.0003696981,1.5179527606,3.3888367972
 GCore=-0.0011992083,0.5154975422,4.0399040163
 ****
 C       
 PQN=2,2 NValence=4 F0ss=0.4612714573 F0sp=0.4215147623 F0pp=0.3269054842 F2pp=0.2085460392
 G1sp=0.3096434975
 ZetaOverlap=2.1646468441,1.5569944789
 U=-1.5334837513,-1.4974702043
 Beta=-0.6252100258,-0.3068862367 DDN=0,1,0.6984301211 DDN=1,1,0.7702570468
 CoreKO=1.3151611645 KON=0,0,0,1.2382550940 KON=1,0,1,0.8617144622 KON=0,1,1,1.0637633139
 KON=2,1,1,0.8576090188 EISol=-4.4398989268 EHeat=0.2723305520 Alpha=1.3368170489
 DipHyp=1.3967798796
 GCore=0.0009704188,1.2981166851,3.4515465450
 GCore=0.0028863397,1.5385714962,3.2100917158
 GCore=-0.0014099133,1.4874457386,3.8453859100
 GCore=-0.0000860662,1.3789752971,5.2587410456
 ****
 O       
 PQN=2,2 NValence=6 F0ss=0.5359690226 F0sp=0.5321302318 F0pp=0.4840519312 F2pp=0.2639984521
 G1sp=0.4450193053
 ZetaOverlap=2.8176196354,2.2908378184
 U=-3.6356959050,-2.4160313669
 Beta=-1.1447216884,-1.0701077288 DDN=0,1,0.5129696429 DDN=1,1,0.4392220846
 CoreKO=0.9737932452 KON=0,0,0,0.8111546111 KON=1,0,1,0.5440307728 KON=0,1,1,0.8528423668
 KON=2,1,1,0.6049512231 EISol=-11.6164441184 EHeat=0.0949133088 Alpha=2.2596482987
 DipHyp=1.0258802626
 GCore=0.0203637789,1.7341302153,2.0999404139
 GCore=0.0054396795,2.1476287035,2.3942679546
 ****
 
 Standard basis: VSTO-6G (5D, 7F)
 Ernie: Thresh=  0.10000D-02 Tol=  0.10000D-05 Strict=F.
  NNHCO=     0 NNPyr=     0 NCTC=     0               EPep=         0.000000000
    EC=        65.836420914  ECS=         2.177230046   EG=         0.468598447
   EHC=         0.000000000  EAt=       -31.051283842  AtH=         1.516354808
 EPDDG=         0.000000000  ECC=        68.482249406 EAtT=        32.567638650
 There are    24 symmetry adapted cartesian basis functions of A   symmetry.
 There are    24 symmetry adapted basis functions of A   symmetry.
    24 basis functions,   144 primitive gaussians,    24 cartesian basis functions
    13 alpha electrons       13 beta electrons
       nuclear repulsion energy       101.0498880569 Hartrees.
 IExCor=    0 DFT=F Ex=HF Corr=None ExCW=0 ScaHFX=  1.000000
 ScaDFX=  1.000000  1.000000  1.000000  1.000000 ScalE2=  1.000000  1.000000
 IRadAn=      0 IRanWt=     -1 IRanGd=            0 ICorTp=0 IEmpDi=  4
 Integral buffers will be    131072 words long.
 Regular integral format.
 Two-electron integral symmetry is turned off.
 Leave Link  301 at Thu Mar 17 10:21:19 2016, MaxMem=    33554432 cpu:         0.0
 (Enter /opt/g09/g09/l302.exe)
 Do NDO integrals.
 NPDir=0 NMtPBC=     1 NCelOv=     1 NCel=       1 NClECP=     1 NCelD=      1
         NCelK=      1 NCelE2=     1 NClLst=     1 CellRange=     0.0.
 One-electron integrals computed using PRISM.
 NBasis=    24 RedAO= F EigKep=  0.00D+00  NBF=    24
 NBsUse=    24 1.00D-04 EigRej=  0.00D+00 NBFU=    24
 Leave Link  302 at Thu Mar 17 10:21:19 2016, MaxMem=    33554432 cpu:         0.0
 (Enter /opt/g09/g09/l303.exe)
 DipDrv:  MaxL=1.
 Leave Link  303 at Thu Mar 17 10:21:19 2016, MaxMem=    33554432 cpu:         0.0
 (Enter /opt/g09/g09/l401.exe)
 Initial guess from the checkpoint file:  "/opt/g09/scratch/Gau-18793.chk"
 B after Tr=     0.000000    0.000000    0.000000
         Rot=    0.999219    0.000054   -0.000068   -0.039515 Ang=   4.53 deg.
 Guess basis will be translated and rotated to current coordinates.
 JPrj=0 DoOrth=T DoCkMO=T.
 Leave Link  401 at Thu Mar 17 10:21:19 2016, MaxMem=    33554432 cpu:         0.0
 (Enter /opt/g09/g09/l502.exe)
 Closed shell SCF:
 Using DIIS extrapolation, IDIIS=  1040.
 Overlap will be assumed to be unity.
 Two-electron integral symmetry not used.
 Keep J ints in memory in canonical form, NReq=888082.
 IVT=       79475 IEndB=       79475 NGot=    33554432 MDV=    33473473
 LenX=    33473473 LenY=    33472456
 Requested convergence on RMS density matrix=1.00D-08 within 128 cycles.
 Requested convergence on MAX density matrix=1.00D-06.
 Requested convergence on             energy=1.00D-06.
 No special actions if energy rises.
 FoFCou: FMM=F IPFlag=           0 FMFlag=           0 FMFlg1=           0
         NFxFlg=           0 DoJE=F BraDBF=F KetDBF=F FulRan=T
         wScrn=  0.000000 ICntrl=     600 IOpCl=  2 I1Cent=           0 NGrid=           0
         NMat0=    1 NMatS0=     54 NMatT0=    0 NMatD0=    1 NMtDS0=    0 NMtDT0=    0
 Symmetry not used in FoFCou.

 Cycle   1  Pass 1  IDiag  1:
 E=  1.23113342262896    
 DIIS: error= 1.59D-02 at cycle   1 NSaved=   1.
 NSaved= 1 IEnMin= 1 EnMin=  1.23113342262896     IErMin= 1 ErrMin= 1.59D-02
 ErrMax= 1.59D-02  0.00D+00 EMaxC= 1.00D-01 BMatC= 7.95D-03 BMatP= 7.95D-03
 IDIUse=3 WtCom= 8.41D-01 WtEn= 1.59D-01
 Coeff-Com:  0.100D+01
 Coeff-En:   0.100D+01
 Coeff:      0.100D+01
 GapD=    2.000 DampG=2.000 DampE=0.500 DampFc=1.0000 IDamp=-1.
 RMSDP=5.33D-03 MaxDP=2.74D-02              OVMax= 0.00D+00

 Cycle   2  Pass 1  IDiag  3:
 E=  1.21124075103778     Delta-E=       -0.019892671591 Rises=F Damp=F
 DIIS: error= 3.93D-03 at cycle   2 NSaved=   2.
 NSaved= 2 IEnMin= 2 EnMin=  1.21124075103778     IErMin= 2 ErrMin= 3.93D-03
 ErrMax= 3.93D-03  0.00D+00 EMaxC= 1.00D-01 BMatC= 6.23D-04 BMatP= 7.95D-03
 IDIUse=3 WtCom= 9.61D-01 WtEn= 3.93D-02
 Coeff-Com: -0.347D+00 0.135D+01
 Coeff-En:   0.000D+00 0.100D+01
 Coeff:     -0.334D+00 0.133D+01
 Gap=     0.448 Goal=   None    Shift=    0.000
 RMSDP=2.32D-03 MaxDP=9.74D-03 DE=-1.99D-02 OVMax= 1.12D-02

 Cycle   3  Pass 1  IDiag  3:
 E=  1.20911903092663     Delta-E=       -0.002121720111 Rises=F Damp=F
 DIIS: error= 4.45D-04 at cycle   3 NSaved=   3.
 NSaved= 3 IEnMin= 3 EnMin=  1.20911903092663     IErMin= 3 ErrMin= 4.45D-04
 ErrMax= 4.45D-04  0.00D+00 EMaxC= 1.00D-01 BMatC= 1.68D-05 BMatP= 6.23D-04
 IDIUse=3 WtCom= 9.96D-01 WtEn= 4.45D-03
 Coeff-Com:  0.154D+00-0.659D+00 0.151D+01
 Coeff-En:   0.000D+00 0.000D+00 0.100D+01
 Coeff:      0.153D+00-0.656D+00 0.150D+01
 Gap=     0.448 Goal=   None    Shift=    0.000
 RMSDP=5.69D-04 MaxDP=2.58D-03 DE=-2.12D-03 OVMax= 3.98D-03

 Cycle   4  Pass 1  IDiag  3:
 E=  1.20902825919271     Delta-E=       -0.000090771734 Rises=F Damp=F
 DIIS: error= 1.21D-04 at cycle   4 NSaved=   4.
 NSaved= 4 IEnMin= 4 EnMin=  1.20902825919271     IErMin= 4 ErrMin= 1.21D-04
 ErrMax= 1.21D-04  0.00D+00 EMaxC= 1.00D-01 BMatC= 9.45D-07 BMatP= 1.68D-05
 IDIUse=3 WtCom= 9.99D-01 WtEn= 1.21D-03
 Coeff-Com: -0.609D-01 0.268D+00-0.753D+00 0.155D+01
 Coeff-En:   0.000D+00 0.000D+00 0.000D+00 0.100D+01
 Coeff:     -0.609D-01 0.268D+00-0.752D+00 0.154D+01
 Gap=     0.449 Goal=   None    Shift=    0.000
 RMSDP=1.55D-04 MaxDP=9.12D-04 DE=-9.08D-05 OVMax= 1.01D-03

 Cycle   5  Pass 1  IDiag  3:
 E=  1.20902252736016     Delta-E=       -0.000005731833 Rises=F Damp=F
 DIIS: error= 4.91D-05 at cycle   5 NSaved=   5.
 NSaved= 5 IEnMin= 5 EnMin=  1.20902252736016     IErMin= 5 ErrMin= 4.91D-05
 ErrMax= 4.91D-05  0.00D+00 EMaxC= 1.00D-01 BMatC= 6.09D-08 BMatP= 9.45D-07
 IDIUse=1 WtCom= 1.00D+00 WtEn= 0.00D+00
 Coeff-Com:  0.169D-01-0.754D-01 0.229D+00-0.629D+00 0.146D+01
 Coeff:      0.169D-01-0.754D-01 0.229D+00-0.629D+00 0.146D+01
 Gap=     0.449 Goal=   None    Shift=    0.000
 RMSDP=3.90D-05 MaxDP=3.65D-04 DE=-5.73D-06 OVMax= 3.59D-04

 Cycle   6  Pass 1  IDiag  3:
 E=  1.20902210815545     Delta-E=       -0.000000419205 Rises=F Damp=F
 DIIS: error= 2.72D-05 at cycle   6 NSaved=   6.
 NSaved= 6 IEnMin= 6 EnMin=  1.20902210815545     IErMin= 6 ErrMin= 2.72D-05
 ErrMax= 2.72D-05  0.00D+00 EMaxC= 1.00D-01 BMatC= 1.20D-08 BMatP= 6.09D-08
 IDIUse=1 WtCom= 1.00D+00 WtEn= 0.00D+00
 Coeff-Com: -0.746D-02 0.334D-01-0.106D+00 0.338D+00-0.114D+01 0.188D+01
 Coeff:     -0.746D-02 0.334D-01-0.106D+00 0.338D+00-0.114D+01 0.188D+01
 Gap=     0.449 Goal=   None    Shift=    0.000
 RMSDP=2.27D-05 MaxDP=2.45D-04 DE=-4.19D-07 OVMax= 2.50D-04

 Cycle   7  Pass 1  IDiag  3:
 E=  1.20902199900887     Delta-E=       -0.000000109147 Rises=F Damp=F
 DIIS: error= 1.11D-05 at cycle   7 NSaved=   7.
 NSaved= 7 IEnMin= 7 EnMin=  1.20902199900887     IErMin= 7 ErrMin= 1.11D-05
 ErrMax= 1.11D-05  0.00D+00 EMaxC= 1.00D-01 BMatC= 2.01D-09 BMatP= 1.20D-08
 IDIUse=1 WtCom= 1.00D+00 WtEn= 0.00D+00
 Coeff-Com:  0.136D-02-0.616D-02 0.231D-01-0.106D+00 0.536D+00-0.143D+01
 Coeff-Com:  0.198D+01
 Coeff:      0.136D-02-0.616D-02 0.231D-01-0.106D+00 0.536D+00-0.143D+01
 Coeff:      0.198D+01
 Gap=     0.449 Goal=   None    Shift=    0.000
 RMSDP=1.28D-05 MaxDP=1.43D-04 DE=-1.09D-07 OVMax= 1.44D-04

 Cycle   8  Pass 1  IDiag  3:
 E=  1.20902197858199     Delta-E=       -0.000000020427 Rises=F Damp=F
 DIIS: error= 1.39D-06 at cycle   8 NSaved=   8.
 NSaved= 8 IEnMin= 8 EnMin=  1.20902197858199     IErMin= 8 ErrMin= 1.39D-06
 ErrMax= 1.39D-06  0.00D+00 EMaxC= 1.00D-01 BMatC= 7.65D-11 BMatP= 2.01D-09
 IDIUse=1 WtCom= 1.00D+00 WtEn= 0.00D+00
 Coeff-Com: -0.228D-03 0.104D-02-0.456D-02 0.268D-01-0.158D+00 0.484D+00
 Coeff-Com: -0.844D+00 0.150D+01
 Coeff:     -0.228D-03 0.104D-02-0.456D-02 0.268D-01-0.158D+00 0.484D+00
 Coeff:     -0.844D+00 0.150D+01
 Gap=     0.449 Goal=   None    Shift=    0.000
 RMSDP=1.89D-06 MaxDP=1.90D-05 DE=-2.04D-08 OVMax= 1.87D-05

 Cycle   9  Pass 1  IDiag  3:
 E=  1.20902197801279     Delta-E=       -0.000000000569 Rises=F Damp=F
 DIIS: error= 2.99D-07 at cycle   9 NSaved=   9.
 NSaved= 9 IEnMin= 9 EnMin=  1.20902197801279     IErMin= 9 ErrMin= 2.99D-07
 ErrMax= 2.99D-07  0.00D+00 EMaxC= 1.00D-01 BMatC= 3.53D-12 BMatP= 7.65D-11
 IDIUse=1 WtCom= 1.00D+00 WtEn= 0.00D+00
 Coeff-Com:  0.361D-04-0.168D-03 0.100D-02-0.772D-02 0.510D-01-0.166D+00
 Coeff-Com:  0.307D+00-0.687D+00 0.150D+01
 Coeff:      0.361D-04-0.168D-03 0.100D-02-0.772D-02 0.510D-01-0.166D+00
 Coeff:      0.307D+00-0.687D+00 0.150D+01
 Gap=     0.449 Goal=   None    Shift=    0.000
 RMSDP=3.41D-07 MaxDP=1.97D-06 DE=-5.69D-10 OVMax= 3.77D-06

 Cycle  10  Pass 1  IDiag  3:
 E=  1.20902197798939     Delta-E=       -0.000000000023 Rises=F Damp=F
 DIIS: error= 6.44D-08 at cycle  10 NSaved=  10.
 NSaved=10 IEnMin=10 EnMin=  1.20902197798939     IErMin=10 ErrMin= 6.44D-08
 ErrMax= 6.44D-08  0.00D+00 EMaxC= 1.00D-01 BMatC= 1.39D-13 BMatP= 3.53D-12
 IDIUse=1 WtCom= 1.00D+00 WtEn= 0.00D+00
 Coeff-Com: -0.104D-04 0.487D-04-0.318D-03 0.259D-02-0.175D-01 0.580D-01
 Coeff-Com: -0.109D+00 0.257D+00-0.687D+00 0.150D+01
 Coeff:     -0.104D-04 0.487D-04-0.318D-03 0.259D-02-0.175D-01 0.580D-01
 Coeff:     -0.109D+00 0.257D+00-0.687D+00 0.150D+01
 Gap=     0.449 Goal=   None    Shift=    0.000
 RMSDP=6.95D-08 MaxDP=4.47D-07 DE=-2.34D-11 OVMax= 9.88D-07

 Cycle  11  Pass 1  IDiag  3:
 E=  1.20902197798837     Delta-E=       -0.000000000001 Rises=F Damp=F
 DIIS: error= 1.47D-08 at cycle  11 NSaved=  11.
 NSaved=11 IEnMin=11 EnMin=  1.20902197798837     IErMin=11 ErrMin= 1.47D-08
 ErrMax= 1.47D-08  0.00D+00 EMaxC= 1.00D-01 BMatC= 6.65D-15 BMatP= 1.39D-13
 IDIUse=1 WtCom= 1.00D+00 WtEn= 0.00D+00
 Coeff-Com:  0.422D-05-0.197D-04 0.128D-03-0.103D-02 0.697D-02-0.232D-01
 Coeff-Com:  0.437D-01-0.104D+00 0.290D+00-0.765D+00 0.155D+01
 Coeff:      0.422D-05-0.197D-04 0.128D-03-0.103D-02 0.697D-02-0.232D-01
 Coeff:      0.437D-01-0.104D+00 0.290D+00-0.765D+00 0.155D+01
 Gap=     0.449 Goal=   None    Shift=    0.000
 RMSDP=1.48D-08 MaxDP=9.94D-08 DE=-1.02D-12 OVMax= 2.03D-07

 Cycle  12  Pass 1  IDiag  3:
 E=  1.20902197798817     Delta-E=        0.000000000000 Rises=F Damp=F
 DIIS: error= 2.28D-09 at cycle  12 NSaved=  12.
 NSaved=12 IEnMin=12 EnMin=  1.20902197798817     IErMin=12 ErrMin= 2.28D-09
 ErrMax= 2.28D-09  0.00D+00 EMaxC= 1.00D-01 BMatC= 2.28D-16 BMatP= 6.65D-15
 IDIUse=1 WtCom= 1.00D+00 WtEn= 0.00D+00
 Coeff-Com: -0.106D-05 0.505D-05-0.370D-04 0.319D-03-0.219D-02 0.733D-02
 Coeff-Com: -0.139D-01 0.332D-01-0.936D-01 0.253D+00-0.618D+00 0.143D+01
 Coeff:     -0.106D-05 0.505D-05-0.370D-04 0.319D-03-0.219D-02 0.733D-02
 Coeff:     -0.139D-01 0.332D-01-0.936D-01 0.253D+00-0.618D+00 0.143D+01
 Gap=     0.449 Goal=   None    Shift=    0.000
 RMSDP=2.42D-09 MaxDP=1.57D-08 DE=-1.99D-13 OVMax= 2.74D-08

 Cycle  13  Pass 2  IDiag  1:
 SCF Done:  E(RAM1) =   1.20902197799     A.U. after   13 cycles
            NFock= 12  Conv=0.24D-08     -V/T= 1.0778
 KE=-1.553688578071D+01 PE=-1.661561200724D+02 EE= 8.185213977420D+01
 Leave Link  502 at Thu Mar 17 10:21:19 2016, MaxMem=    33554432 cpu:         0.0
 (Enter /opt/g09/g09/l701.exe)
 Compute integral first derivatives.
 ... and contract with generalized density number  0.
 Leave Link  701 at Thu Mar 17 10:21:19 2016, MaxMem=    33554432 cpu:         0.0
 (Enter /opt/g09/g09/l702.exe)
 L702 exits ... SP integral derivatives will be done elsewhere.
 Leave Link  702 at Thu Mar 17 10:21:19 2016, MaxMem=    33554432 cpu:         0.0
 (Enter /opt/g09/g09/l703.exe)
 Compute integral first derivatives, UseDBF=F ICtDFT=           0.
 Integral derivatives from FoFJK, PRISM(SPDF).
 Calling FoFJK, ICntrl=      2127 FMM=F ISym2X=0 I1Cent= 0 IOpClX= 0 NMat=1 NMatS=1 NMatT=0.
 FoFJK:  IHMeth= 8 ICntrl=    2127 DoSepK=F KAlg= 0 I1Cent=   0 FoldK=F
 IRaf=         0 NMat=   1 IRICut=       1 DoRegI=T DoRafI=F ISym2E= 0.
 FoFCou: FMM=F IPFlag=           0 FMFlag=      100000 FMFlg1=         800
         NFxFlg=           0 DoJE=F BraDBF=F KetDBF=F FulRan=T
         wScrn=  0.000000 ICntrl=    2127 IOpCl=  0 I1Cent=           0 NGrid=           0
         NMat0=    1 NMatS0=      1 NMatT0=    0 NMatD0=    1 NMtDS0=    0 NMtDT0=    0
 Symmetry not used in FoFCou.
 Leave Link  703 at Thu Mar 17 10:21:19 2016, MaxMem=    33554432 cpu:         0.0
 (Enter /opt/g09/g09/l716.exe)
 Dipole        =-1.16672963D-01-2.25283598D+00 6.96056864D-02
 ***** Axes restored to original set *****
 -------------------------------------------------------------------
 Center     Atomic                   Forces (Hartrees/Bohr)
 Number     Number              X              Y              Z
 -------------------------------------------------------------------
      1        6           0.012623865   -0.080350788    0.003815516
      2        6          -0.020194523   -0.014294623   -0.000413167
      3        8           0.001334618   -0.007979694   -0.001988138
      4        6          -0.012331029    0.020461007   -0.000867619
      5        6           0.011756701    0.079211964   -0.000719667
      6        1           0.002107336    0.008441774   -0.000020015
      7        1           0.000938038    0.002896925    0.001244449
      8        1           0.002097952   -0.001027840    0.001252364
      9        1           0.001667043   -0.007358724   -0.002303721
 -------------------------------------------------------------------
 Cartesian Forces:  Max     0.080350788 RMS     0.023136012
 Leave Link  716 at Thu Mar 17 10:21:19 2016, MaxMem=    33554432 cpu:         0.0
 (Enter /opt/g09/g09/l103.exe)

 GradGradGradGradGradGradGradGradGradGradGradGradGradGradGradGradGradGrad
 Berny optimization.
 Using GEDIIS/GDIIS optimizer.
 FormGI is forming the generalized inverse of G from B-inverse, IUseBI=4.
 Internal  Forces:  Max     0.090034133 RMS     0.016163448
 Search for a local minimum.
 Step number   3 out of a maximum of   48
 All quantities printed in internal units (Hartrees-Bohrs-Radians)
 RMS Force = .16163D-01 SwitMx=.10000D-02 MixMth= 1
 Mixed Optimization -- RFO/linear search
 Update second derivatives using D2CorX and points    2    3
 DE= -1.95D-02 DEPred=-2.62D-02 R= 7.44D-01
 TightC=F SS=  1.41D+00  RLast= 6.16D-01 DXNew= 8.4853D-01 1.8470D+00
 Trust test= 7.44D-01 RLast= 6.16D-01 DXMaxT set to 8.49D-01
 ITU=  1  1  0
 Use linear search instead of GDIIS.
     Eigenvalues ---    0.01772   0.02035   0.02109   0.02351   0.02573
[...]
 Root      3 has converged.
 Root      4 has converged.
 Root      5 has converged.
 Root      6 has converged.
 Root      7 has converged.
 Root      8 has converged.
 Root      9 not converged, maximum delta is    0.000001404878536
 Root     10 not converged, maximum delta is    0.000001098572785
 Excitation Energies [eV] at current iteration:
 Root      1 :     4.461510918678617   Change is   -0.000000000003474
 Root      2 :     5.903888554234673   Change is   -0.000000000000224
 Root      3 :     6.561299649098941   Change is   -0.000000000000278
 Root      4 :     7.642622938149460   Change is   -0.000000000033703
 Root      5 :     7.989997570522752   Change is   -0.000000000005069
 Root      6 :     8.363004171267097   Change is   -0.000000000004773
 Root      7 :     8.412311162749695   Change is   -0.000000000005384
 Root      8 :     8.698332849432239   Change is   -0.000000000040966
 Root      9 :     9.469644029433672   Change is   -0.000000000623658
 Root     10 :     9.608372695860208   Change is   -0.000000000088934
 Iteration     8 Dimension   130 NMult   128 NNew      2
 CISAX will form     2 AO SS matrices at one time.
 NMat=     2 NSing=     2 JSym2X= 0.
 Root      1 has converged.
 Root      2 has converged.
 Root      3 has converged.
 Root      4 has converged.
 Root      5 has converged.
 Root      6 has converged.
 Root      7 has converged.
 Root      8 has converged.
 Root      9 has converged.
 Root     10 has converged.
 Excitation Energies [eV] at current iteration:
 Root      1 :     4.461510918678568   Change is   -0.000000000000048
 Root      2 :     5.903888554234690   Change is    0.000000000000018
 Root      3 :     6.561299649098952   Change is    0.000000000000012
 Root      4 :     7.642622938149237   Change is   -0.000000000000224
 Root      5 :     7.989997570522710   Change is   -0.000000000000042
 Root      6 :     8.363004171267114   Change is    0.000000000000018
 Root      7 :     8.412311162749720   Change is    0.000000000000024
 Root      8 :     8.698332849432095   Change is   -0.000000000000145
 Root      9 :     9.469644029432027   Change is   -0.000000000001643
 Root     10 :     9.608372695859224   Change is   -0.000000000000985
 Convergence achieved on expansion vectors.
 ***********************************************************************
 Excited states from <AA,BB:AA,BB> singles matrix:
 ***********************************************************************
 
 1PDM for each excited state written to RWF  633
 Ground to excited state transition densities written to RWF  633
 Ground to excited state transition electric dipole moments (Au):
       state          X           Y           Z        Dip. S.      Osc.
         1        -1.4513      0.4023      0.1107      2.2803      0.2492
         2        -0.1340      0.0229      0.0305      0.0194      0.0028
         3        -0.0303      0.1187     -0.1935      0.0525      0.0084
         4        -0.1072     -0.4525      0.0465      0.2184      0.0409
         5        -0.1090     -0.0750      0.0359      0.0188      0.0037
         6         0.0161     -0.0180     -0.0347      0.0018      0.0004
         7        -0.0109      0.0886      0.0964      0.0173      0.0036
         8        -0.2225     -0.6703      0.0045      0.4988      0.1063
         9        -0.2401      0.1214     -0.0190      0.0728      0.0169
        10        -0.1018     -0.0896      0.2314      0.0719      0.0169
 Ground to excited state transition velocity dipole moments (Au):
       state          X           Y           Z        Dip. S.      Osc.
         1         0.1933     -0.0563     -0.0198      0.0409      0.1664
         2         0.0415     -0.0011     -0.0054      0.0018      0.0054
         3         0.0231     -0.0203      0.1000      0.0110      0.0303
         4         0.0734      0.2063      0.0002      0.0480      0.1138
         5        -0.0011      0.0350     -0.0094      0.0013      0.0030
         6         0.0006     -0.0016     -0.0005      0.0000      0.0000
         7         0.0022     -0.0700     -0.0245      0.0055      0.0119
         8         0.0727      0.2161     -0.0131      0.0522      0.1088
         9        -0.0759      0.0100     -0.0482      0.0082      0.0157
        10         0.0137      0.0187      0.0332      0.0016      0.0031
 Ground to excited state transition magnetic dipole moments (Au):
       state          X           Y           Z
         1        -0.0244      0.1271     -0.5161
         2        -0.4533     -1.0117     -0.1031
         3         1.0963     -0.4807     -0.0650
         4         0.1841     -0.1438     -0.0028
         5         0.0273      0.0135      0.0348
         6        -0.1415     -0.5317     -0.0775
         7        -0.0717     -0.1407     -0.0557
         8        -0.0740      0.1079     -0.0203
         9        -0.0652      0.1395      0.0455
        10         0.7458     -0.2475     -0.0051
 Ground to excited state transition velocity quadrupole moments (Au):
       state          XX          YY          ZZ          XY          XZ          YZ
         1         0.3132     -0.2983      0.0050      0.4816     -0.0207     -0.0307
         2         0.0867     -0.0071      0.0066      0.0853     -0.2143      0.0944
         3         0.1145      0.0156     -0.0070      0.0411     -0.0043     -0.0495
         4        -0.2428      0.3201     -0.0323      0.3016     -0.0957      0.0244
         5        -0.0724      0.0700     -0.0108      0.0488      0.0847     -0.0079
         6         0.0512     -0.0773      0.0573     -0.0821     -0.3165      0.0469
         7         0.0367      0.0112     -0.0247      0.0127     -0.0466      0.0342
         8         0.0165     -0.1091      0.0260     -0.0089      0.0411      0.0008
         9        -0.3122      0.3369      0.0232     -0.5601     -0.0097     -0.0981
        10        -0.0163      0.0042     -0.0063     -0.0618     -0.0632     -0.1804
 <0|del|b> * <b|rxdel|0> + <0|del|b> * <b|delr+rdel|0>
 Rotatory Strengths (R) in cgs (10**-40 erg-esu-cm/Gauss)
       state          XX          YY          ZZ    R(velocity)    E-M Angle
         1       -16.4621     19.6813    -10.3150     -2.3653       90.88
         2         1.5867    -22.6212    -34.8597    -18.6314      111.58
         3        10.6676     19.8952     53.2572     27.9400       76.83
         4       -12.4226     19.1919    -47.4356    -13.5554      108.40
         5        -3.9414      0.1318      4.0901      0.0935       86.01
         6         0.4923     -0.0688      1.4208      0.6148       36.06
         7         8.7391      1.8222     14.7247      8.4287       27.14
         8        16.3909     -5.7119     29.5989     13.4260       52.97
         9        26.7150    -17.0582     -1.2083      2.8162       73.36
        10        -5.6748      9.6212      6.8524      3.5996       80.24
 1/2[<0|r|b>*<b|rxdel|0> + (<0|rxdel|b>*<b|r|0>)*]
 Rotatory Strengths (R) in cgs (10**-40 erg-esu-cm/Gauss)
       state          XX          YY          ZZ     R(length)
         1       -25.0767    -36.1603     40.4113     -6.9419
         2       -42.9563     16.4176      2.2220     -8.1056
         3        23.5283     40.3641     -8.9017     18.3302
         4        13.9603    -46.0243      0.0911    -10.6576
         5         2.1025      0.7164     -0.8824      0.6455
         6         1.6154     -6.7835     -1.9026     -2.3569
         7        -0.5516      8.8174      3.7966      4.0208
         8       -11.6365     51.1365      0.0649     13.1883
         9       -11.0759    -11.9760      0.6113     -7.4802
        10        53.6683    -15.6769      0.8316     12.9410
  1/2[<0|del|b>*<b|r|0> + (<0|r|b>*<b|del|0>)*] (Au)
       state          X           Y           Z        Dip. S.   Osc.(frdel)
         1        -0.2805     -0.0226     -0.0022      0.3053      0.2036
         2        -0.0056      0.0000     -0.0002      0.0058      0.0038
         3        -0.0007     -0.0024     -0.0194      0.0225      0.0150
         4        -0.0079     -0.0933      0.0000      0.1012      0.0675
         5         0.0001     -0.0026     -0.0003      0.0028      0.0019
         6         0.0000      0.0000      0.0000     -0.0001      0.0000
         7         0.0000     -0.0062     -0.0024      0.0086      0.0057
         8        -0.0162     -0.1449     -0.0001      0.1611      0.1074
         9         0.0182      0.0012      0.0009     -0.0204     -0.0136
        10        -0.0014     -0.0017      0.0077     -0.0046     -0.0031

 Excitation energies and oscillator strengths:
 
 Excited State   1:      Singlet-A      4.4615 eV  277.90 nm  f=0.2492  <S**2>=0.000
      13 -> 14         0.68297
 This state for optimization and/or second-order correction.
 Total Energy, E(CIS) =   1.43975880164    
 Copying the excited state density for this state as the 1-particle RhoCI density.
 
 Excited State   2:      Singlet-A      5.9039 eV  210.00 nm  f=0.0028  <S**2>=0.000
       9 -> 14         0.14360
      12 -> 14         0.68578
 
 Excited State   3:      Singlet-A      6.5613 eV  188.96 nm  f=0.0084  <S**2>=0.000
      10 -> 14         0.13454
      11 -> 14         0.68672
 
 Excited State   4:      Singlet-A      7.6426 eV  162.23 nm  f=0.0409  <S**2>=0.000
      10 -> 14         0.64524
      11 -> 14        -0.12006
      13 -> 16        -0.20400
 
 Excited State   5:      Singlet-A      7.9900 eV  155.17 nm  f=0.0037  <S**2>=0.000
      13 -> 15         0.65071
      13 -> 17        -0.13928
      13 -> 18        -0.16932
 
 Excited State   6:      Singlet-A      8.3630 eV  148.25 nm  f=0.0004  <S**2>=0.000
       5 -> 14        -0.10320
       6 -> 14         0.10909
       9 -> 14         0.64979
      12 -> 14        -0.14535
      13 -> 16         0.15912
 
 Excited State   7:      Singlet-A      8.4123 eV  147.38 nm  f=0.0036  <S**2>=0.000
       9 -> 14         0.10547
      13 -> 15         0.12422
      13 -> 16        -0.24190
      13 -> 17         0.62349
      13 -> 19         0.10073
 
 Excited State   8:      Singlet-A      8.6983 eV  142.54 nm  f=0.1063  <S**2>=0.000
       9 -> 14        -0.12590
      10 -> 14         0.20429
      13 -> 16         0.59692
      13 -> 17         0.24396
 
 Excited State   9:      Singlet-A      9.4696 eV  130.93 nm  f=0.0169  <S**2>=0.000
       6 -> 14        -0.11123
       8 -> 14         0.18403
       9 -> 15        -0.20854
       9 -> 17         0.10328
      10 -> 15        -0.10991
      11 -> 15        -0.11178
      11 -> 17        -0.26244
      11 -> 21         0.10675
      12 -> 15        -0.22394
      12 -> 17         0.17887
      12 -> 18         0.30297
      13 -> 14         0.13159
 
 Excited State  10:      Singlet-A      9.6084 eV  129.04 nm  f=0.0169  <S**2>=0.000
       7 -> 16        -0.18156
       9 -> 16        -0.20265
      12 -> 16         0.62916
 SavETr:  write IOETrn=   770 NScale= 10 NData=  16 NLR=1 NState=   10 LETran=     190.
 The selected state is a singlet
 CISAX will form     1 AO SS matrices at one time.
 NMat=     1 NSing=     1 JSym2X= 0.
 Leave Link  914 at Thu Mar 17 10:21:21 2016, MaxMem=    33554432 cpu:         0.1
 (Enter /opt/g09/g09/l1002.exe)
 Minotr:  Closed shell wavefunction.
          Computing CIS/TD-HF/TD-KS derivatives.
          Using Z-Vector for PSCF gradient.
          Skipping F1 and S1 gradient terms here.
          IDoAtm=111111111
          Direct CPHF calculation.
          Differentiating once with respect to electric field.
                with respect to dipole field.
          Differentiating once with respect to nuclear coordinates.
          Electric field/nuclear overlap derivatives assumed to be zero.
          Requested convergence is 1.0D-10 RMS, and 1.0D-09 maximum.
          NewPWx=T KeepS1=F KeepF1=F KeepIn=T MapXYZ=F SortEE=F KeepMc=T.
          MDV=      33495423 using IRadAn=       0.
 Keep J ints in memory in canonical form, NReq=871704.
 FoFCou: FMM=F IPFlag=           0 FMFlag=           0 FMFlg1=           0
         NFxFlg=           0 DoJE=F BraDBF=F KetDBF=F FulRan=T
         wScrn=  0.000000 ICntrl=     600 IOpCl=  2 I1Cent=           0 NGrid=           0
         NMat0=    1 NMatS0=     54 NMatT0=    0 NMatD0=    1 NMtDS0=    0 NMtDT0=    0
 Symmetry not used in FoFCou.
          Solving linear equations separately, MaxMat=       0.
          There are     1 degrees of freedom in the 1st order CPHF.  IDoFFX=0 NUNeed=     1.
 LinEq1:  Iter=  0 NonCon=     1 RMS=5.95D-03 Max=3.38D-02 NDo=     1
 AX will form     1 AO Fock derivatives at one time.
 LinEq1:  Iter=  1 NonCon=     1 RMS=7.94D-04 Max=4.42D-03 NDo=     1
 LinEq1:  Iter=  2 NonCon=     1 RMS=1.15D-04 Max=5.50D-04 NDo=     1
 LinEq1:  Iter=  3 NonCon=     1 RMS=2.06D-05 Max=1.65D-04 NDo=     1
 LinEq1:  Iter=  4 NonCon=     1 RMS=3.85D-06 Max=1.62D-05 NDo=     1
 LinEq1:  Iter=  5 NonCon=     1 RMS=8.99D-07 Max=4.77D-06 NDo=     1
 LinEq1:  Iter=  6 NonCon=     1 RMS=1.02D-07 Max=4.36D-07 NDo=     1
 LinEq1:  Iter=  7 NonCon=     1 RMS=9.54D-09 Max=3.10D-08 NDo=     1
 LinEq1:  Iter=  8 NonCon=     1 RMS=1.11D-09 Max=4.14D-09 NDo=     1
 LinEq1:  Iter=  9 NonCon=     1 RMS=1.38D-10 Max=6.54D-10 NDo=     1
 LinEq1:  Iter= 10 NonCon=     0 RMS=1.88D-11 Max=8.69D-11 NDo=     1
 Linear equations converged to 1.000D-10 1.000D-09 after    10 iterations.
 End of Minotr F.D. properties file   721 does not exist.
 End of Minotr F.D. properties file   722 does not exist.
 End of Minotr F.D. properties file   788 does not exist.
 Leave Link 1002 at Thu Mar 17 10:21:21 2016, MaxMem=    33554432 cpu:         0.0
 (Enter /opt/g09/g09/l1101.exe)
 Using compressed Sx but separate Hx and Fx, NAtomX=     9.
 Will process     10 centers per pass.
 Leave Link 1101 at Thu Mar 17 10:21:21 2016, MaxMem=    33554432 cpu:         0.0
 (Enter /opt/g09/g09/l1102.exe)
 Use density number 6.
 Symmetrizing basis deriv contribution to polar:
 IMax=3 JMax=2 DiffMx= 0.00D+00
 Leave Link 1102 at Thu Mar 17 10:21:21 2016, MaxMem=    33554432 cpu:         0.0
 (Enter /opt/g09/g09/l1110.exe)
 Forming Gx(P) for the SCF density, NAtomX=     9.
 Integral derivatives from FoFJK, PRISM(SPDF).
 Do as many integral derivatives as possible in FoFJK.
 G2DrvN: MDV=      33495365.
 G2DrvN: will do    10 centers at a time, making    1 passes.
 Calling FoFCou, ICntrl=  3107 FMM=F I1Cent=   0 AccDes= 0.00D+00.
 FoFJK:  IHMeth= 8 ICntrl=    3107 DoSepK=F KAlg= 0 I1Cent=   0 FoldK=F
 IRaf=         0 NMat=   1 IRICut=       1 DoRegI=T DoRafI=F ISym2E= 0.
 FoFCou: FMM=F IPFlag=           0 FMFlag=      100000 FMFlg1=           0
         NFxFlg=           0 DoJE=F BraDBF=F KetDBF=F FulRan=T
         wScrn=  0.000000 ICntrl=    3107 IOpCl=  0 I1Cent=           0 NGrid=           0
         NMat0=    1 NMatS0=      1 NMatT0=    0 NMatD0=    1 NMtDS0=    0 NMtDT0=    0
 Symmetry not used in FoFCou.
 Forming Gx(P) for generalized density number  6 NAtomX=     9.
 Integral derivatives from FoFJK, PRISM(SPDF).
 Do as many integral derivatives as possible in FoFJK.
 G2DrvN: MDV=      33495365.
 G2DrvN: will do    10 centers at a time, making    1 passes.
 Calling FoFCou, ICntrl=  3107 FMM=F I1Cent=   0 AccDes= 0.00D+00.
 Forming Gx(T) for CIS state  1 NAtomX=     9.
 Integral derivatives from FoFJK, PRISM(SPDF).
 Do as many integral derivatives as possible in FoFJK.
 G2DrvN: MDV=      33495365.
 G2DrvN: will do    10 centers at a time, making    1 passes.
 Calling FoFCou, ICntrl=  3307 FMM=F I1Cent=   0 AccDes= 0.00D+00.
 End of G2Drv F.D. properties file   721 does not exist.
 End of G2Drv F.D. properties file   722 does not exist.
 End of G2Drv F.D. properties file   788 does not exist.
 Leave Link 1110 at Thu Mar 17 10:21:21 2016, MaxMem=    33554432 cpu:         0.0
 (Enter /opt/g09/g09/l1002.exe)
 Minotr:  Closed shell wavefunction.
          IDoAtm=111111111
          Direct CPHF calculation.
          Differentiating once with respect to electric field.
                with respect to dipole field.
          Differentiating once with respect to nuclear coordinates.
          Electric field/nuclear overlap derivatives assumed to be zero.
          Requested convergence is 1.0D-08 RMS, and 1.0D-07 maximum.
          NewPWx=T KeepS1=T KeepF1=T KeepIn=T MapXYZ=F SortEE=F KeepMc=T.
          MDV=      33495423 using IRadAn=       2.
 Keep J ints in memory in canonical form, NReq=871704.
 FoFCou: FMM=F IPFlag=           0 FMFlag=           0 FMFlg1=           0
         NFxFlg=           0 DoJE=F BraDBF=F KetDBF=F FulRan=T
         wScrn=  0.000000 ICntrl=     600 IOpCl=  2 I1Cent=           0 NGrid=           0
         NMat0=    1 NMatS0=     54 NMatT0=    0 NMatD0=    1 NMtDS0=    0 NMtDT0=    0
 Symmetry not used in FoFCou.
          Solving linear equations separately, MaxMat=       0.
          There are    30 degrees of freedom in the 1st order CPHF.  IDoFFX=5 NUNeed=    30.
 LinEq1:  Iter=  0 NonCon=    30 RMS=3.69D-01 Max=3.45D+00 NDo=    30
 AX will form    30 AO Fock derivatives at one time.
 LinEq1:  Iter=  1 NonCon=    30 RMS=5.62D-02 Max=2.24D-01 NDo=    30
 LinEq1:  Iter=  2 NonCon=    30 RMS=1.23D-02 Max=6.02D-02 NDo=    30
 LinEq1:  Iter=  3 NonCon=    30 RMS=1.14D-03 Max=4.64D-03 NDo=    30
 LinEq1:  Iter=  4 NonCon=    30 RMS=1.72D-04 Max=7.38D-04 NDo=    30
 LinEq1:  Iter=  5 NonCon=    30 RMS=1.65D-05 Max=8.82D-05 NDo=    30
 LinEq1:  Iter=  6 NonCon=    30 RMS=2.12D-06 Max=1.36D-05 NDo=    30
 LinEq1:  Iter=  7 NonCon=    19 RMS=2.55D-07 Max=1.19D-06 NDo=    30
 LinEq1:  Iter=  8 NonCon=     3 RMS=2.90D-08 Max=1.14D-07 NDo=    30
 LinEq1:  Iter=  9 NonCon=     0 RMS=3.08D-09 Max=1.19D-08 NDo=    30
 Linear equations converged to 1.000D-08 1.000D-07 after     9 iterations.
 FullF1:  Do perturbations    1 to    30.
 Saving first derivative matrices.
 End of Minotr F.D. properties file   721 does not exist.
 End of Minotr F.D. properties file   722 does not exist.
 End of Minotr F.D. properties file   788 does not exist.
 Leave Link 1002 at Thu Mar 17 10:21:21 2016, MaxMem=    33554432 cpu:         0.0
 (Enter /opt/g09/g09/l1014.exe)
 Doing CIS second derivatives.
 This link is doing    30 degrees of freedom
 Form MO integral derivatives with frozen-active canonical formalism.
 CisSec: MDV=      33495466
 Symmetry is being used.
 The selected state is a singlet
 Computing gradients using direct method.
 CISAX will form    30 AO SS matrices at one time.
 NMat=    30 NSing=    30 JSym2X= 0.
 FoFJK:  IHMeth= 8 ICntrl=       0 DoSepK=F KAlg= 0 I1Cent=   0 FoldK=F
 IRaf=         0 NMat=  60 IRICut=       1 DoRegI=T DoRafI=F ISym2E= 0.
 FoFCou: FMM=F IPFlag=           0 FMFlag=      100000 FMFlg1=           0
         NFxFlg=           0 DoJE=F BraDBF=F KetDBF=F FulRan=T
         wScrn=  0.000000 ICntrl=       0 IOpCl=  0 I1Cent=           0 NGrid=           0
         NMat0=   60 NMatS0=     30 NMatT0=    0 NMatD0=   60 NMtDS0=    0 NMtDT0=    0
 Symmetry not used in FoFCou.
 Symmetry is being used.
     30 vectors produced by pass  0 Test12= 4.77D-16 3.33D-09 XBig12= 1.14D+00 6.28D-01.
 AX will form    30 AO Fock derivatives at one time.
     27 vectors produced by pass  1 Test12= 4.77D-16 3.33D-09 XBig12= 3.45D-02 1.14D-01.
     27 vectors produced by pass  2 Test12= 4.77D-16 3.33D-09 XBig12= 3.90D-04 5.69D-03.
     27 vectors produced by pass  3 Test12= 4.77D-16 3.33D-09 XBig12= 1.38D-06 3.47D-04.
     27 vectors produced by pass  4 Test12= 4.77D-16 3.33D-09 XBig12= 3.73D-09 2.37D-05.
      4 vectors produced by pass  5 Test12= 4.77D-16 3.33D-09 XBig12= 6.35D-13 2.33D-07.
 InvSVY:  IOpt=1 It=  1 EMax= 1.33D-15
 Solved reduced A of dimension   142 with    30 vectors.
 Max Tx.T =      0.000006646319 for Degree =     2
 Tx not orthogonal to T.
 Error termination via Lnk1e in /opt/g09/g09/l1014.exe at Thu Mar 17 10:21:21 2016.
 Job cpu time:       0 days  0 hours  0 minutes  0.4 seconds.
 File lengths (MBytes):  RWF=      6 Int=      0 D2E=      0 Chk=      1 Scr=      1
