 Entering Gaussian System, Link 0=g09
 Input=best.com
 Output=best.log
 Initial command:
 /opt/g09/g09/l1.exe "/opt/g09/scratch/Gau-5214.inp" -scrdir="/opt/g09/scratch/"
 Entering Link 1 = /opt/g09/g09/l1.exe PID=      5215.
  
 Copyright (c) 1988,1990,1992,1993,1995,1998,2003,2009,2013,
            Gaussian, Inc.  All Rights Reserved.
  
 This is part of the Gaussian(R) 09 program.  It is based on
 the Gaussian(R) 03 system (copyright 2003, Gaussian, Inc.),
 the Gaussian(R) 98 system (copyright 1998, Gaussian, Inc.),
 the Gaussian(R) 94 system (copyright 1995, Gaussian, Inc.),
 the Gaussian 92(TM) system (copyright 1992, Gaussian, Inc.),
 the Gaussian 90(TM) system (copyright 1990, Gaussian, Inc.),
 the Gaussian 88(TM) system (copyright 1988, Gaussian, Inc.),
 the Gaussian 86(TM) system (copyright 1986, Carnegie Mellon
 University), and the Gaussian 82(TM) system (copyright 1983,
 Carnegie Mellon University). Gaussian is a federally registered
 trademark of Gaussian, Inc.
  
 This software contains proprietary and confidential information,
 including trade secrets, belonging to Gaussian, Inc.
  
 This software is provided under written license and may be
 used, copied, transmitted, or stored only in accord with that
 written license.
  
 The following legend is applicable only to US Government
 contracts under FAR:
  
                    RESTRICTED RIGHTS LEGEND
  
 Use, reproduction and disclosure by the US Government is
 subject to restrictions as set forth in subparagraphs (a)
 and (c) of the Commercial Computer Software - Restricted
 Rights clause in FAR 52.227-19.
  
 Gaussian, Inc.
 340 Quinnipiac St., Bldg. 40, Wallingford CT 06492
  
  
 ---------------------------------------------------------------
 Warning -- This program may not be used in any manner that
 competes with the business of Gaussian, Inc. or will provide
 assistance to any competitor of Gaussian, Inc.  The licensee
 of this program is prohibited from giving any competitor of
 Gaussian, Inc. access to this program.  By using this program,
 the user acknowledges that Gaussian, Inc. is engaged in the
 business of creating and licensing software in the field of
 computational chemistry and represents and warrants to the
 licensee that it is not a competitor of Gaussian, Inc. and that
 it will not use this program in any manner prohibited above.
 ---------------------------------------------------------------
  

 Cite this work as:
 Gaussian 09, Revision D.01,
 M. J. Frisch, G. W. Trucks, H. B. Schlegel, G. E. Scuseria, 
 M. A. Robb, J. R. Cheeseman, G. Scalmani, V. Barone, B. Mennucci, 
 G. A. Petersson, H. Nakatsuji, M. Caricato, X. Li, H. P. Hratchian, 
 A. F. Izmaylov, J. Bloino, G. Zheng, J. L. Sonnenberg, M. Hada, 
 M. Ehara, K. Toyota, R. Fukuda, J. Hasegawa, M. Ishida, T. Nakajima, 
 Y. Honda, O. Kitao, H. Nakai, T. Vreven, J. A. Montgomery, Jr., 
 J. E. Peralta, F. Ogliaro, M. Bearpark, J. J. Heyd, E. Brothers, 
 K. N. Kudin, V. N. Staroverov, T. Keith, R. Kobayashi, J. Normand, 
 K. Raghavachari, A. Rendell, J. C. Burant, S. S. Iyengar, J. Tomasi, 
 M. Cossi, N. Rega, J. M. Millam, M. Klene, J. E. Knox, J. B. Cross, 
 V. Bakken, C. Adamo, J. Jaramillo, R. Gomperts, R. E. Stratmann, 
 O. Yazyev, A. J. Austin, R. Cammi, C. Pomelli, J. W. Ochterski, 
 R. L. Martin, K. Morokuma, V. G. Zakrzewski, G. A. Voth, 
 P. Salvador, J. J. Dannenberg, S. Dapprich, A. D. Daniels, 
 O. Farkas, J. B. Foresman, J. V. Ortiz, J. Cioslowski, 
 and D. J. Fox, Gaussian, Inc., Wallingford CT, 2013.
 
 ******************************************
 Gaussian 09:  ES64L-G09RevD.01 24-Apr-2013
                23-Mar-2016 
 ******************************************
 -----------------------
 #P AM1(Input,Print) opt
 -----------------------
 1/14=-1,18=20,19=15,26=1,38=1/1,3;
 2/9=110,12=2,17=6,18=5,40=1/2;
 3/5=2,16=1,25=1,41=700000,71=1,135=100,136=1/1,2,3;
 4/35=1/1;
 5/5=2,35=1,38=5/2;
 6/7=2,8=2,9=2,10=2,28=1/1;
 7//1,2,3,16;
 1/14=-1,18=20,19=15,26=1/3(2);
 2/9=110/2;
 99//99;
 2/9=110/2;
 3/5=2,16=1,25=1,41=700000,71=1,135=20,136=1/1,2,3;
 4/5=5,16=3,35=1/1;
 5/5=2,35=1,38=5/2;
 7//1,2,3,16;
 1/14=-1,18=20,19=15,26=1/3(-5);
 2/9=110/2;
 6/7=2,8=2,9=2,10=2,19=2,28=1/1;
 99/9=1/99;
 Leave Link    1 at Wed Mar 23 16:12:34 2016, MaxMem=           0 cpu:         0.0
 (Enter /opt/g09/g09/l101.exe)
 ----
 best
 ----
 Symbolic Z-matrix:
 Charge =  0 Multiplicity = 1
 6                     0.87993  -0.73179   0.00898 
 6                    -0.38439  -1.24268  -0.00707 
 6                    -0.35475   1.20224   0.09227 
 6                     0.90029   0.75932  -0.07557 
 1                     1.73252   1.34325   0.05397 
 1                    -0.51391   2.27701   0.26119 
 1                    -0.6359   -2.28841   0.22096 
 1                     1.75923  -1.30224  -0.08672 
 16                   -1.5978    0.0408   -0.1305 
 
 NAtoms=      9 NQM=        9 NQMF=       0 NMMI=      0 NMMIF=      0
                NMic=       0 NMicF=      0.
                    Isotopes and Nuclear Properties:
 (Nuclear quadrupole moments (NQMom) in fm**2, nuclear magnetic moments (NMagM)
  in nuclear magnetons)

  Atom         1           2           3           4           5           6           7           8           9
 IAtWgt=          12          12          12          12           1           1           1           1          32
 AtmWgt=  12.0000000  12.0000000  12.0000000  12.0000000   1.0078250   1.0078250   1.0078250   1.0078250  31.9720718
 NucSpn=           0           0           0           0           1           1           1           1           0
 AtZEff=   0.0000000   0.0000000   0.0000000   0.0000000   0.0000000   0.0000000   0.0000000   0.0000000   0.0000000
 NQMom=    0.0000000   0.0000000   0.0000000   0.0000000   0.0000000   0.0000000   0.0000000   0.0000000   0.0000000
 NMagM=    0.0000000   0.0000000   0.0000000   0.0000000   2.7928460   2.7928460   2.7928460   2.7928460   0.0000000
 AtZNuc=   6.0000000   6.0000000   6.0000000   6.0000000   1.0000000   1.0000000   1.0000000   1.0000000  16.0000000
 Leave Link  101 at Wed Mar 23 16:12:34 2016, MaxMem=    33554432 cpu:         0.0
 (Enter /opt/g09/g09/l103.exe)

 GradGradGradGradGradGradGradGradGradGradGradGradGradGradGradGradGradGrad
 Berny optimization.
 Initialization pass.
                           ----------------------------
                           !    Initial Parameters    !
                           ! (Angstroms and Degrees)  !
 --------------------------                            --------------------------
 ! Name  Definition              Value          Derivative Info.                !
 --------------------------------------------------------------------------------
 ! R1    R(1,2)                  1.3637         estimate D2E/DX2                !
 ! R2    R(1,4)                  1.4936         estimate D2E/DX2                !
 ! R3    R(1,8)                  1.0525         estimate D2E/DX2                !
 ! R4    R(2,7)                  1.0995         estimate D2E/DX2                !
 ! R5    R(2,9)                  1.7706         estimate D2E/DX2                !
 ! R6    R(3,4)                  1.3414         estimate D2E/DX2                !
 ! R7    R(3,6)                  1.0995         estimate D2E/DX2                !
 ! R8    R(3,9)                  1.7157         estimate D2E/DX2                !
 ! R9    R(4,5)                  1.0249         estimate D2E/DX2                !
 ! A1    A(2,1,4)              112.7034         estimate D2E/DX2                !
 ! A2    A(2,1,8)              124.7797         estimate D2E/DX2                !
 ! A3    A(4,1,8)              121.638          estimate D2E/DX2                !
 ! A4    A(1,2,7)              124.4689         estimate D2E/DX2                !
 ! A5    A(1,2,9)              111.3839         estimate D2E/DX2                !
 ! A6    A(7,2,9)              123.1726         estimate D2E/DX2                !
 ! A7    A(4,3,6)              118.5155         estimate D2E/DX2                !
 ! A8    A(4,3,9)              115.9809         estimate D2E/DX2                !
 ! A9    A(6,3,9)              125.2229         estimate D2E/DX2                !
 ! A10   A(1,4,3)              108.0468         estimate D2E/DX2                !
 ! A11   A(1,4,5)              124.9393         estimate D2E/DX2                !
 ! A12   A(3,4,5)              123.7648         estimate D2E/DX2                !
 ! A13   A(2,9,3)               89.1488         estimate D2E/DX2                !
 ! D1    D(4,1,2,7)           -168.7505         estimate D2E/DX2                !
 ! D2    D(4,1,2,9)              0.2288         estimate D2E/DX2                !
 ! D3    D(8,1,2,7)             21.8771         estimate D2E/DX2                !
 ! D4    D(8,1,2,9)           -169.1436         estimate D2E/DX2                !
 ! D5    D(2,1,4,3)             10.734          estimate D2E/DX2                !
 ! D6    D(2,1,4,5)            170.9026         estimate D2E/DX2                !
 ! D7    D(8,1,4,3)           -179.5146         estimate D2E/DX2                !
 ! D8    D(8,1,4,5)            -19.346          estimate D2E/DX2                !
 ! D9    D(1,2,9,3)             -8.2617         estimate D2E/DX2                !
 ! D10   D(7,2,9,3)            160.8854         estimate D2E/DX2                !
 ! D11   D(6,3,4,1)            168.0144         estimate D2E/DX2                !
 ! D12   D(6,3,4,5)              7.5585         estimate D2E/DX2                !
 ! D13   D(9,3,4,1)            -17.7506         estimate D2E/DX2                !
 ! D14   D(9,3,4,5)           -178.2064         estimate D2E/DX2                !
 ! D15   D(4,3,9,2)             15.7021         estimate D2E/DX2                !
 ! D16   D(6,3,9,2)           -170.5004         estimate D2E/DX2                !
 --------------------------------------------------------------------------------
 Trust Radius=3.00D-01 FncErr=1.00D-07 GrdErr=1.00D-07
 Number of steps in this run=     48 maximum allowed number of steps=    100.
 GradGradGradGradGradGradGradGradGradGradGradGradGradGradGradGradGradGrad

 Leave Link  103 at Wed Mar 23 16:12:34 2016, MaxMem=    33554432 cpu:         0.0
 (Enter /opt/g09/g09/l202.exe)
                          Input orientation:                          
 ---------------------------------------------------------------------
 Center     Atomic      Atomic             Coordinates (Angstroms)
 Number     Number       Type             X           Y           Z
 ---------------------------------------------------------------------
      1          6           0        0.879928   -0.731785    0.008975
      2          6           0       -0.384394   -1.242676   -0.007068
      3          6           0       -0.354746    1.202243    0.092266
      4          6           0        0.900287    0.759315   -0.075569
      5          1           0        1.732516    1.343246    0.053969
      6          1           0       -0.513905    2.277013    0.261193
      7          1           0       -0.635902   -2.288411    0.220962
      8          1           0        1.759230   -1.302242   -0.086717
      9         16           0       -1.597795    0.040802   -0.130502
 ---------------------------------------------------------------------
                    Distance matrix (angstroms):
                    1          2          3          4          5
     1  C    0.000000
     2  C    1.363736   0.000000
     3  C    2.296045   2.447116   0.000000
     4  C    1.493634   2.379720   1.341440   0.000000
     5  H    2.243810   3.342458   2.092370   1.024871   0.000000
     6  H    3.325545   3.532272   1.099545   2.101608   2.441571
     7  H    2.183063   1.099462   3.504323   3.425849   4.338920
     8  H    1.052497   2.145930   3.282282   2.233366   2.649361
     9  S    2.599126   1.770563   1.715734   2.599941   3.580693
                    6          7          8          9
     6  H    0.000000
     7  H    4.567231   0.000000
     8  H    4.254321   2.608420   0.000000
     9  S    2.515727   2.544405   3.615979   0.000000
 Stoichiometry    C4H4S
 Framework group  C1[X(C4H4S)]
 Deg. of freedom    21
 Full point group                 C1      NOp   1
 Largest Abelian subgroup         C1      NOp   1
 Largest concise Abelian subgroup C1      NOp   1
                         Standard orientation:                         
 ---------------------------------------------------------------------
 Center     Atomic      Atomic             Coordinates (Angstroms)
 Number     Number       Type             X           Y           Z
 ---------------------------------------------------------------------
      1          6           0       -1.262332    0.752535    0.008585
      2          6           0        0.004571    1.255902    0.045408
      3          6           0       -0.042271   -1.189942    0.108875
      4          6           0       -1.287929   -0.737085   -0.097807
      5          1           0       -2.127538   -1.317700   -0.006674
      6          1           0        0.104687   -2.267918    0.268151
      7          1           0        0.253495    2.296796    0.297189
      8          1           0       -2.134408    1.329611   -0.110646
      9         16           0        1.214471   -0.033078   -0.052399
 ---------------------------------------------------------------------
 Rotational constants (GHZ):      7.9164604      5.2751456      3.1872791
 Leave Link  202 at Wed Mar 23 16:12:34 2016, MaxMem=    33554432 cpu:         0.0
 (Enter /opt/g09/g09/l301.exe)

 Semi-emprical parameters in input format:
 Method=8 CoreType=1 PeptideFC=0.0114505045 RIJScale=0.5291772086
 ****
 H       
 PQN=1 NValence=1 F0ss=0.4721553327 ZetaOverlap=1.1880780000 U=-0.4188110042
 Beta=-0.2268825074 CoreKO=1.0589197790 KON=0,0,0,1.0589197790 KON=1,0,1,1.0589197790
 KON=0,1,1,1.0589197790 KON=2,1,1,1.0589197790 EISol=-0.4188110042 EHeat=0.0830298228
 Alpha=1.5252601686
 GCore=0.0085277107,1.4001425905,2.2676713595
 GCore=0.0003534810,1.4001425905,3.4015070392
 GCore=-0.0012733648,0.5600570362,3.9684248791
 ****
 C       
 PQN=2,2 NValence=4 F0ss=0.4494442496 F0sp=0.4215147623 F0pp=0.3768030831 F2pp=0.1898715146
 G1sp=0.2679025821
 ZetaOverlap=1.8086650000,1.6851160000
 U=-1.9120180828,-1.4557965594
 Beta=-0.5775444233,-0.2836784428 DDN=0,1,0.8236736000 DDN=1,1,0.7268015000
 CoreKO=1.1124284736 KON=0,0,0,1.1124284736 KON=1,0,1,0.8219701441 KON=0,1,1,1.1124284736
 KON=2,1,1,0.7783928119 EISol=-4.4398989268 EHeat=0.2723305520 Alpha=1.4014062429
 DipHyp=1.6472524267
 GCore=0.0007885612,1.4001425905,3.0235618126
 GCore=0.0031892455,1.4001425905,3.4959933458
 GCore=-0.0013931594,1.4001425905,3.8739385724
 GCore=-0.0000875022,1.4001425905,5.0077742521
 ****
 S       
 PQN=3,3 NValence=6 F0ss=0.4331396397 F0sp=0.3183640731 F0pp=0.3136271218 F2pp=0.3456917167
 G1sp=0.2791629797
 ZetaOverlap=2.3665150000,1.6672630000,1.0000000000
 U=-2.0834683120,-1.7903186861
 Beta=-0.1440781557,-0.2905136336 DDN=0,1,0.9004265000 DDN=1,1,1.0036329000
 CoreKO=1.1543033468 KON=0,0,0,1.1543033468 KON=1,0,1,0.8464368816 KON=0,1,1,1.1543033468
 KON=2,1,1,0.7746001785 EISol=-7.0460287497 EHeat=0.1058151363 Alpha=1.3026480172
 DipHyp=1.8007493954
 GCore=-0.0353616377,1.2863644833,1.4563457902
 GCore=-0.0008238398,1.6425719595,2.8408498620
 GCore=0.0008565489,3.7964407093,3.7967867236
 ****
 
 Standard basis: VSTO-6G (5D, 7F)
 Ernie: Thresh=  0.10000D-02 Tol=  0.10000D-05 Strict=F.
  NNHCO=     0 NNPyr=     0 NCTC=     0               EPep=         0.000000000
    EC=        63.349144007  ECS=         1.643654585   EG=         0.146692703
   EHC=         0.000000000  EAt=       -26.480868474  AtH=         1.527256636
 EPDDG=         0.000000000  ECC=        65.139491296 EAtT=        28.008125109
 There are    24 symmetry adapted cartesian basis functions of A   symmetry.
 There are    24 symmetry adapted basis functions of A   symmetry.
    24 basis functions,   144 primitive gaussians,    24 cartesian basis functions
    13 alpha electrons       13 beta electrons
       nuclear repulsion energy        93.1476164052 Hartrees.



 Warning!  S  atom    9 may be hypervalent but has no d functions.



 IExCor=    0 DFT=F Ex=HF Corr=None ExCW=0 ScaHFX=  1.000000
 ScaDFX=  1.000000  1.000000  1.000000  1.000000 ScalE2=  1.000000  1.000000
 IRadAn=      0 IRanWt=     -1 IRanGd=            0 ICorTp=0 IEmpDi=  4
 Integral buffers will be    131072 words long.
 Regular integral format.
 Two-electron integral symmetry is turned off.
 Leave Link  301 at Wed Mar 23 16:12:34 2016, MaxMem=    33554432 cpu:         0.0
 (Enter /opt/g09/g09/l302.exe)
 Do NDO integrals.
 NPDir=0 NMtPBC=     1 NCelOv=     1 NCel=       1 NClECP=     1 NCelD=      1
         NCelK=      1 NCelE2=     1 NClLst=     1 CellRange=     0.0.
 One-electron integrals computed using PRISM.
 NBasis=    24 RedAO= F EigKep=  0.00D+00  NBF=    24
 NBsUse=    24 1.00D-04 EigRej=  0.00D+00 NBFU=    24
 Leave Link  302 at Wed Mar 23 16:12:34 2016, MaxMem=    33554432 cpu:         0.0
 (Enter /opt/g09/g09/l303.exe)
 DipDrv:  MaxL=1.
 Leave Link  303 at Wed Mar 23 16:12:34 2016, MaxMem=    33554432 cpu:         0.0
 (Enter /opt/g09/g09/l401.exe)
 Simple Huckel Guess.
 JPrj=0 DoOrth=F DoCkMO=F.
 Leave Link  401 at Wed Mar 23 16:12:34 2016, MaxMem=    33554432 cpu:         0.0
 (Enter /opt/g09/g09/l502.exe)
 Closed shell SCF:
 Using DIIS extrapolation, IDIIS=  1040.
 Overlap will be assumed to be unity.
 Two-electron integral symmetry not used.
 Keep J ints in memory in canonical form, NReq=888082.
 IVT=       79475 IEndB=       79475 NGot=    33554432 MDV=    33473473
 LenX=    33473473 LenY=    33472456
 Requested convergence on RMS density matrix=1.00D-08 within 128 cycles.
 Requested convergence on MAX density matrix=1.00D-06.
 Requested convergence on             energy=1.00D-06.
 No special actions if energy rises.
 FoFCou: FMM=F IPFlag=           0 FMFlag=           0 FMFlg1=           0
         NFxFlg=           0 DoJE=F BraDBF=F KetDBF=F FulRan=T
         wScrn=  0.000000 ICntrl=     600 IOpCl=  2 I1Cent=           0 NGrid=           0
         NMat0=    1 NMatS0=     54 NMatT0=    0 NMatD0=    1 NMtDS0=    0 NMtDT0=    0
 Symmetry not used in FoFCou.

 Cycle   1  Pass 1  IDiag  1:
 E= 0.261413833066982    
 DIIS: error= 3.86D-02 at cycle   1 NSaved=   1.
 NSaved= 1 IEnMin= 1 EnMin= 0.261413833066982     IErMin= 1 ErrMin= 3.86D-02
 ErrMax= 3.86D-02  0.00D+00 EMaxC= 1.00D-01 BMatC= 6.12D-02 BMatP= 6.12D-02
 IDIUse=3 WtCom= 6.14D-01 WtEn= 3.86D-01
 Coeff-Com:  0.100D+01
 Coeff-En:   0.100D+01
 Coeff:      0.100D+01
 GapD=    2.000 DampG=2.000 DampE=0.500 DampFc=1.0000 IDamp=-1.
 RMSDP=1.76D-02 MaxDP=1.32D-01              OVMax= 0.00D+00

 Cycle   2  Pass 1  IDiag  1:
 E= 0.866150829947259E-01 Delta-E=       -0.174798750072 Rises=F Damp=F
 DIIS: error= 1.12D-02 at cycle   2 NSaved=   2.
 NSaved= 2 IEnMin= 2 EnMin= 0.866150829947259E-01 IErMin= 2 ErrMin= 1.12D-02
 ErrMax= 1.12D-02  0.00D+00 EMaxC= 1.00D-01 BMatC= 4.77D-03 BMatP= 6.12D-02
 IDIUse=3 WtCom= 8.88D-01 WtEn= 1.12D-01
 Coeff-Com: -0.350D+00 0.135D+01
 Coeff-En:   0.000D+00 0.100D+01
 Coeff:     -0.311D+00 0.131D+01
 RMSDP=7.03D-03 MaxDP=6.80D-02 DE=-1.75D-01 OVMax= 0.00D+00

 Cycle   3  Pass 1  IDiag  3:
 E= 0.696058646971807E-01 Delta-E=       -0.017009218298 Rises=F Damp=F
 DIIS: error= 1.48D-03 at cycle   3 NSaved=   3.
 NSaved= 3 IEnMin= 3 EnMin= 0.696058646971807E-01 IErMin= 3 ErrMin= 1.48D-03
 ErrMax= 1.48D-03  0.00D+00 EMaxC= 1.00D-01 BMatC= 9.72D-05 BMatP= 4.77D-03
 IDIUse=3 WtCom= 9.85D-01 WtEn= 1.48D-02
 Coeff-Com:  0.110D+00-0.477D+00 0.137D+01
 Coeff-En:   0.000D+00 0.000D+00 0.100D+01
 Coeff:      0.108D+00-0.470D+00 0.136D+01
 Gap=     0.344 Goal=   None    Shift=    0.000
 RMSDP=1.68D-03 MaxDP=1.65D-02 DE=-1.70D-02 OVMax= 1.67D-02

 Cycle   4  Pass 1  IDiag  3:
 E= 0.689129388245675E-01 Delta-E=       -0.000692925873 Rises=F Damp=F
 DIIS: error= 4.57D-04 at cycle   4 NSaved=   4.
 NSaved= 4 IEnMin= 4 EnMin= 0.689129388245675E-01 IErMin= 4 ErrMin= 4.57D-04
 ErrMax= 4.57D-04  0.00D+00 EMaxC= 1.00D-01 BMatC= 8.85D-06 BMatP= 9.72D-05
 IDIUse=3 WtCom= 9.95D-01 WtEn= 4.57D-03
 Coeff-Com: -0.410D-02 0.226D-01-0.336D+00 0.132D+01
 Coeff-En:   0.000D+00 0.000D+00 0.000D+00 0.100D+01
 Coeff:     -0.408D-02 0.225D-01-0.335D+00 0.132D+01
 Gap=     0.343 Goal=   None    Shift=    0.000
 RMSDP=6.59D-04 MaxDP=5.09D-03 DE=-6.93D-04 OVMax= 7.87D-03

 Cycle   5  Pass 1  IDiag  3:
 E= 0.688281614761337E-01 Delta-E=       -0.000084777348 Rises=F Damp=F
 DIIS: error= 2.51D-04 at cycle   5 NSaved=   5.
 NSaved= 5 IEnMin= 5 EnMin= 0.688281614761337E-01 IErMin= 5 ErrMin= 2.51D-04
 ErrMax= 2.51D-04  0.00D+00 EMaxC= 1.00D-01 BMatC= 1.21D-06 BMatP= 8.85D-06
 IDIUse=3 WtCom= 9.97D-01 WtEn= 2.51D-03
 Coeff-Com: -0.380D-02 0.153D-01 0.129D+00-0.929D+00 0.179D+01
 Coeff-En:   0.000D+00 0.000D+00 0.000D+00 0.000D+00 0.100D+01
 Coeff:     -0.379D-02 0.152D-01 0.129D+00-0.926D+00 0.179D+01
 Gap=     0.343 Goal=   None    Shift=    0.000
 RMSDP=3.34D-04 MaxDP=2.72D-03 DE=-8.48D-05 OVMax= 4.33D-03

 Cycle   6  Pass 1  IDiag  3:
 E= 0.688142523394646E-01 Delta-E=       -0.000013909137 Rises=F Damp=F
 DIIS: error= 6.04D-05 at cycle   6 NSaved=   6.
 NSaved= 6 IEnMin= 6 EnMin= 0.688142523394646E-01 IErMin= 6 ErrMin= 6.04D-05
 ErrMax= 6.04D-05  0.00D+00 EMaxC= 1.00D-01 BMatC= 5.77D-08 BMatP= 1.21D-06
 IDIUse=1 WtCom= 1.00D+00 WtEn= 0.00D+00
 Coeff-Com:  0.140D-02-0.611D-02-0.522D-01 0.408D+00-0.941D+00 0.159D+01
 Coeff:      0.140D-02-0.611D-02-0.522D-01 0.408D+00-0.941D+00 0.159D+01
 Gap=     0.343 Goal=   None    Shift=    0.000
 RMSDP=6.96D-05 MaxDP=6.36D-04 DE=-1.39D-05 OVMax= 8.37D-04

 Cycle   7  Pass 1  IDiag  3:
 E= 0.688136827722730E-01 Delta-E=       -0.000000569567 Rises=F Damp=F
 DIIS: error= 7.09D-06 at cycle   7 NSaved=   7.
 NSaved= 7 IEnMin= 7 EnMin= 0.688136827722730E-01 IErMin= 7 ErrMin= 7.09D-06
 ErrMax= 7.09D-06  0.00D+00 EMaxC= 1.00D-01 BMatC= 1.39D-09 BMatP= 5.77D-08
 IDIUse=1 WtCom= 1.00D+00 WtEn= 0.00D+00
 Coeff-Com: -0.287D-03 0.120D-02 0.113D-01-0.877D-01 0.205D+00-0.414D+00
 Coeff-Com:  0.129D+01
 Coeff:     -0.287D-03 0.120D-02 0.113D-01-0.877D-01 0.205D+00-0.414D+00
 Coeff:      0.129D+01
 Gap=     0.343 Goal=   None    Shift=    0.000
 RMSDP=7.35D-06 MaxDP=6.29D-05 DE=-5.70D-07 OVMax= 7.79D-05

 Cycle   8  Pass 1  IDiag  3:
 E= 0.688136724490107E-01 Delta-E=       -0.000000010323 Rises=F Damp=F
 DIIS: error= 1.51D-06 at cycle   8 NSaved=   8.
 NSaved= 8 IEnMin= 8 EnMin= 0.688136724490107E-01 IErMin= 8 ErrMin= 1.51D-06
 ErrMax= 1.51D-06  0.00D+00 EMaxC= 1.00D-01 BMatC= 1.35D-10 BMatP= 1.39D-09
 IDIUse=1 WtCom= 1.00D+00 WtEn= 0.00D+00
 Coeff-Com:  0.657D-04-0.247D-03-0.186D-02 0.149D-01-0.351D-01 0.864D-01
 Coeff-Com: -0.572D+00 0.151D+01
 Coeff:      0.657D-04-0.247D-03-0.186D-02 0.149D-01-0.351D-01 0.864D-01
 Coeff:     -0.572D+00 0.151D+01
 Gap=     0.343 Goal=   None    Shift=    0.000
 RMSDP=2.43D-06 MaxDP=1.48D-05 DE=-1.03D-08 OVMax= 1.83D-05

 Cycle   9  Pass 1  IDiag  3:
 E= 0.688136713980469E-01 Delta-E=       -0.000000001051 Rises=F Damp=F
 DIIS: error= 2.59D-07 at cycle   9 NSaved=   9.
 NSaved= 9 IEnMin= 9 EnMin= 0.688136713980469E-01 IErMin= 9 ErrMin= 2.59D-07
 ErrMax= 2.59D-07  0.00D+00 EMaxC= 1.00D-01 BMatC= 6.82D-12 BMatP= 1.35D-10
 IDIUse=1 WtCom= 1.00D+00 WtEn= 0.00D+00
 Coeff-Com: -0.110D-04 0.271D-04 0.267D-03-0.201D-02 0.480D-02-0.195D-01
 Coeff-Com:  0.226D+00-0.772D+00 0.156D+01
 Coeff:     -0.110D-04 0.271D-04 0.267D-03-0.201D-02 0.480D-02-0.195D-01
 Coeff:      0.226D+00-0.772D+00 0.156D+01
 Gap=     0.343 Goal=   None    Shift=    0.000
 RMSDP=5.96D-07 MaxDP=2.76D-06 DE=-1.05D-09 OVMax= 5.31D-06

 Cycle  10  Pass 1  IDiag  3:
 E= 0.688136713406351E-01 Delta-E=       -0.000000000057 Rises=F Damp=F
 DIIS: error= 7.63D-08 at cycle  10 NSaved=  10.
 NSaved=10 IEnMin=10 EnMin= 0.688136713406351E-01 IErMin=10 ErrMin= 7.63D-08
 ErrMax= 7.63D-08  0.00D+00 EMaxC= 1.00D-01 BMatC= 3.44D-13 BMatP= 6.82D-12
 IDIUse=1 WtCom= 1.00D+00 WtEn= 0.00D+00
 Coeff-Com:  0.118D-05 0.487D-05-0.738D-04 0.376D-03-0.824D-03 0.633D-02
 Coeff-Com: -0.994D-01 0.360D+00-0.864D+00 0.160D+01
 Coeff:      0.118D-05 0.487D-05-0.738D-04 0.376D-03-0.824D-03 0.633D-02
 Coeff:     -0.994D-01 0.360D+00-0.864D+00 0.160D+01
 Gap=     0.343 Goal=   None    Shift=    0.000
 RMSDP=1.41D-07 MaxDP=8.06D-07 DE=-5.74D-11 OVMax= 1.56D-06

 Cycle  11  Pass 1  IDiag  3:
 E= 0.688136713373666E-01 Delta-E=       -0.000000000003 Rises=F Damp=F
 DIIS: error= 2.63D-08 at cycle  11 NSaved=  11.
 NSaved=11 IEnMin=11 EnMin= 0.688136713373666E-01 IErMin=11 ErrMin= 2.63D-08
 ErrMax= 2.63D-08  0.00D+00 EMaxC= 1.00D-01 BMatC= 2.53D-14 BMatP= 3.44D-13
 IDIUse=1 WtCom= 1.00D+00 WtEn= 0.00D+00
 Coeff-Com:  0.344D-06-0.681D-05 0.272D-04-0.645D-04 0.884D-04-0.258D-02
 Coeff-Com:  0.500D-01-0.185D+00 0.460D+00-0.100D+01 0.168D+01
 Coeff:      0.344D-06-0.681D-05 0.272D-04-0.645D-04 0.884D-04-0.258D-02
 Coeff:      0.500D-01-0.185D+00 0.460D+00-0.100D+01 0.168D+01
 Gap=     0.343 Goal=   None    Shift=    0.000
 RMSDP=4.21D-08 MaxDP=2.67D-07 DE=-3.27D-12 OVMax= 4.72D-07

 Cycle  12  Pass 1  IDiag  3:
 E= 0.688136713370824E-01 Delta-E=        0.000000000000 Rises=F Damp=F
 DIIS: error= 7.57D-09 at cycle  12 NSaved=  12.
 NSaved=12 IEnMin=12 EnMin= 0.688136713370824E-01 IErMin=12 ErrMin= 7.57D-09
 ErrMax= 7.57D-09  0.00D+00 EMaxC= 1.00D-01 BMatC= 2.41D-15 BMatP= 2.53D-14
 IDIUse=1 WtCom= 1.00D+00 WtEn= 0.00D+00
 Coeff-Com: -0.297D-06 0.373D-05-0.120D-04 0.166D-04 0.145D-05 0.101D-02
 Coeff-Com: -0.212D-01 0.791D-01-0.198D+00 0.455D+00-0.103D+01 0.172D+01
 Coeff:     -0.297D-06 0.373D-05-0.120D-04 0.166D-04 0.145D-05 0.101D-02
 Coeff:     -0.212D-01 0.791D-01-0.198D+00 0.455D+00-0.103D+01 0.172D+01
 Gap=     0.343 Goal=   None    Shift=    0.000
 RMSDP=1.51D-08 MaxDP=8.99D-08 DE=-2.84D-13 OVMax= 1.63D-07

 Cycle  13  Pass 1  IDiag  3:
 E= 0.688136713373666E-01 Delta-E=        0.000000000000 Rises=F Damp=F
 DIIS: error= 1.25D-09 at cycle  13 NSaved=  13.
 NSaved=13 IEnMin=12 EnMin= 0.688136713370824E-01 IErMin=13 ErrMin= 1.25D-09
 ErrMax= 1.25D-09  0.00D+00 EMaxC= 1.00D-01 BMatC= 9.60D-17 BMatP= 2.41D-15
 IDIUse=1 WtCom= 1.00D+00 WtEn= 0.00D+00
 Coeff-Com:  0.120D-06-0.135D-05 0.419D-05-0.468D-05-0.563D-05-0.311D-03
 Coeff-Com:  0.691D-02-0.258D-01 0.646D-01-0.150D+00 0.359D+00-0.734D+00
 Coeff-Com:  0.148D+01
 Coeff:      0.120D-06-0.135D-05 0.419D-05-0.468D-05-0.563D-05-0.311D-03
 Coeff:      0.691D-02-0.258D-01 0.646D-01-0.150D+00 0.359D+00-0.734D+00
 Coeff:      0.148D+01
 Gap=     0.343 Goal=   None    Shift=    0.000
 RMSDP=2.44D-09 MaxDP=1.50D-08 DE= 2.84D-13 OVMax= 3.06D-08

 Cycle  14  Pass 2  IDiag  1:
 SCF Done:  E(RAM1) =  0.688136713374E-01 A.U. after   14 cycles
            NFock= 13  Conv=0.24D-08     -V/T= 1.0047
 KE=-1.450072251665D+01 PE=-1.546040369644D+02 EE= 7.602595674727D+01
 Leave Link  502 at Wed Mar 23 16:12:34 2016, MaxMem=    33554432 cpu:         0.0
 (Enter /opt/g09/g09/l601.exe)
 Copying SCF densities to generalized density rwf, IOpCl= 0 IROHF=0.

 **********************************************************************

            Population analysis using the SCF density.

 **********************************************************************

 Orbital symmetries:
       Occupied  (A) (A) (A) (A) (A) (A) (A) (A) (A) (A) (A) (A)
                 (A)
       Virtual   (A) (A) (A) (A) (A) (A) (A) (A) (A) (A) (A)
 The electronic state is 1-A.
 Alpha  occ. eigenvalues --   -1.38044  -1.10596  -0.90182  -0.75236  -0.67764
 Alpha  occ. eigenvalues --   -0.60079  -0.51506  -0.50354  -0.49110  -0.47206
 Alpha  occ. eigenvalues --   -0.43279  -0.35760  -0.33527
 Alpha virt. eigenvalues --    0.00804   0.03448   0.03858   0.05971   0.14018
 Alpha virt. eigenvalues --    0.15670   0.17193   0.17657   0.18765   0.19131
 Alpha virt. eigenvalues --    0.20582
          Condensed to atoms (all electrons):
               1          2          3          4          5          6
     1  C    4.148351   0.000000   0.000000   0.000000   0.000000   0.000000
     2  C    0.000000   4.349071   0.000000   0.000000   0.000000   0.000000
     3  C    0.000000   0.000000   4.372176   0.000000   0.000000   0.000000
     4  C    0.000000   0.000000   0.000000   4.148598   0.000000   0.000000
     5  H    0.000000   0.000000   0.000000   0.000000   0.850842   0.000000
     6  H    0.000000   0.000000   0.000000   0.000000   0.000000   0.839739
     7  H    0.000000   0.000000   0.000000   0.000000   0.000000   0.000000
     8  H    0.000000   0.000000   0.000000   0.000000   0.000000   0.000000
     9  S    0.000000   0.000000   0.000000   0.000000   0.000000   0.000000
               7          8          9
     1  C    0.000000   0.000000   0.000000
     2  C    0.000000   0.000000   0.000000
     3  C    0.000000   0.000000   0.000000
     4  C    0.000000   0.000000   0.000000
     5  H    0.000000   0.000000   0.000000
     6  H    0.000000   0.000000   0.000000
     7  H    0.830723   0.000000   0.000000
     8  H    0.000000   0.851940   0.000000
     9  S    0.000000   0.000000   5.608559
 Mulliken charges:
               1
     1  C   -0.148351
     2  C   -0.349071
     3  C   -0.372176
     4  C   -0.148598
     5  H    0.149158
     6  H    0.160261
     7  H    0.169277
     8  H    0.148060
     9  S    0.391441
 Sum of Mulliken charges =   0.00000
 Mulliken charges with hydrogens summed into heavy atoms:
               1
     1  C   -0.000291
     2  C   -0.179795
     3  C   -0.211915
     4  C    0.000560
     9  S    0.391441
 Charge=              0.0000 electrons
 Dipole moment (field-independent basis, Debye):
    X=             -0.2015    Y=              0.0054    Z=              0.2062  Tot=              0.2883
 N-N= 9.314761640515D+01 E-N=-1.546040369712D+02  KE=-1.450072251665D+01
 Leave Link  601 at Wed Mar 23 16:12:34 2016, MaxMem=    33554432 cpu:         0.0
 (Enter /opt/g09/g09/l701.exe)
 Compute integral first derivatives.
 ... and contract with generalized density number  0.
 Leave Link  701 at Wed Mar 23 16:12:34 2016, MaxMem=    33554432 cpu:         0.0
 (Enter /opt/g09/g09/l702.exe)
 L702 exits ... SP integral derivatives will be done elsewhere.
 Leave Link  702 at Wed Mar 23 16:12:34 2016, MaxMem=    33554432 cpu:         0.0
 (Enter /opt/g09/g09/l703.exe)
 Compute integral first derivatives, UseDBF=F ICtDFT=           0.
 Integral derivatives from FoFJK, PRISM(SPDF).
 Calling FoFJK, ICntrl=      2127 FMM=F ISym2X=0 I1Cent= 0 IOpClX= 0 NMat=1 NMatS=1 NMatT=0.
 FoFJK:  IHMeth= 8 ICntrl=    2127 DoSepK=F KAlg= 0 I1Cent=   0 FoldK=F
 IRaf=         0 NMat=   1 IRICut=       1 DoRegI=T DoRafI=F ISym2E= 0.
 FoFCou: FMM=F IPFlag=           0 FMFlag=      100000 FMFlg1=         800
         NFxFlg=           0 DoJE=F BraDBF=F KetDBF=F FulRan=T
         wScrn=  0.000000 ICntrl=    2127 IOpCl=  0 I1Cent=           0 NGrid=           0
         NMat0=    1 NMatS0=      1 NMatT0=    0 NMatD0=    1 NMtDS0=    0 NMtDT0=    0
 Symmetry not used in FoFCou.
 Leave Link  703 at Wed Mar 23 16:12:34 2016, MaxMem=    33554432 cpu:         0.0
 (Enter /opt/g09/g09/l716.exe)
 Dipole        =-7.92667047D-02 2.12677547D-03 8.11269916D-02
 ***** Axes restored to original set *****
 -------------------------------------------------------------------
 Center     Atomic                   Forces (Hartrees/Bohr)
 Number     Number              X              Y              Z
 -------------------------------------------------------------------
      1        6          -0.020051349    0.042635923   -0.025435281
      2        6          -0.016345405    0.014432758    0.009154760
      3        6          -0.041755809    0.030249139   -0.018601346
      4        6          -0.026206080   -0.087659853    0.026697858
      5        1           0.048497613    0.025284809   -0.001650688
      6        1          -0.011227788   -0.004450807   -0.002744426
      7        1          -0.002445458    0.007756533   -0.010224483
      8        1           0.026341840   -0.015220594    0.004746957
      9       16           0.043192437   -0.013027909    0.018056648
 -------------------------------------------------------------------
 Cartesian Forces:  Max     0.087659853 RMS     0.028636982
 Leave Link  716 at Wed Mar 23 16:12:34 2016, MaxMem=    33554432 cpu:         0.0
 (Enter /opt/g09/g09/l103.exe)

 GradGradGradGradGradGradGradGradGradGradGradGradGradGradGradGradGradGrad
 Berny optimization.
 FormGI is forming the generalized inverse of G from B-inverse, IUseBI=4.
 Internal  Forces:  Max     0.053579305 RMS     0.015906211
 Search for a local minimum.
 Step number   1 out of a maximum of   48
 All quantities printed in internal units (Hartrees-Bohrs-Radians)
 RMS Force = .15906D-01 SwitMx=.10000D-02 MixMth= 1
 Mixed Optimization -- RFO/linear search
 Second derivative matrix not updated -- first step.
 ITU=  0
     Eigenvalues ---    0.01469   0.01593   0.02050   0.02204   0.02321
     Eigenvalues ---    0.02447   0.14686   0.15623   0.15779   0.15931
     Eigenvalues ---    0.21812   0.22415   0.27983   0.32137   0.33253
     Eigenvalues ---    0.33733   0.33742   0.39533   0.43570   0.49191
     Eigenvalues ---    0.54876
 RFO step:  Lambda=-3.55078369D-02 EMin= 1.46869841D-02
 Linear search not attempted -- first point.
 Iteration  1 RMS(Cart)=  0.07540277 RMS(Int)=  0.00701526
 Iteration  2 RMS(Cart)=  0.00557311 RMS(Int)=  0.00413427
 Iteration  3 RMS(Cart)=  0.00004728 RMS(Int)=  0.00413408
 Iteration  4 RMS(Cart)=  0.00000033 RMS(Int)=  0.00413408
 ITry= 1 IFail=0 DXMaxC= 2.22D-01 DCOld= 1.00D+10 DXMaxT= 3.00D-01 DXLimC= 3.00D+00 Rises=F
 Variable       Old X    -DE/DX   Delta X   Delta X   Delta X     New X
                                 (Linear)    (Quad)   (Total)
    R1        2.57709  -0.00164   0.00000  -0.00734  -0.00686   2.57022
    R2        2.82256  -0.03090   0.00000  -0.08513  -0.08490   2.73766
    R3        1.98893   0.02983   0.00000   0.06923   0.06923   2.05816
    R4        2.07768  -0.00894   0.00000  -0.02397  -0.02397   2.05371
    R5        3.34588  -0.02800   0.00000  -0.09208  -0.09204   3.25384
    R6        2.53495   0.03683   0.00000   0.06477   0.06439   2.59934
    R7        2.07784  -0.00315   0.00000  -0.00844  -0.00844   2.06940
    R8        3.24227  -0.02316   0.00000  -0.05626  -0.05657   3.18570
    R9        1.93673   0.05358   0.00000   0.11371   0.11371   2.05043
    A1        1.96705  -0.00247   0.00000  -0.00943  -0.01201   1.95504
    A2        2.17782   0.00316   0.00000   0.02028   0.02088   2.19870
    A3        2.12298  -0.00006   0.00000   0.00180   0.00147   2.12445
    A4        2.17239   0.00398   0.00000   0.02834   0.02828   2.20067
    A5        1.94402   0.00282   0.00000   0.00564   0.00318   1.94719
    A6        2.14977  -0.00595   0.00000  -0.02291  -0.02279   2.12698
    A7        2.06849   0.02290   0.00000   0.09712   0.09644   2.16493
    A8        2.02425  -0.02050   0.00000  -0.05649  -0.06270   1.96155
    A9        2.18555  -0.00162   0.00000  -0.02850  -0.02902   2.15653
   A10        1.88577   0.00999   0.00000   0.06898   0.05818   1.94395
   A11        2.18060  -0.00865   0.00000  -0.03209  -0.03996   2.14064
   A12        2.16010   0.00281   0.00000   0.03646   0.03102   2.19112
   A13        1.55594   0.01388   0.00000   0.06142   0.05732   1.61326
    D1       -2.94525  -0.00224   0.00000  -0.03025  -0.02797  -2.97323
    D2        0.00399   0.00178   0.00000   0.02865   0.02710   0.03109
    D3        0.38183  -0.00590   0.00000  -0.10570  -0.10705   0.27478
    D4       -2.95211  -0.00188   0.00000  -0.04681  -0.05198  -3.00409
    D5        0.18734  -0.00838   0.00000  -0.15672  -0.16054   0.02680
    D6        2.98281   0.00499   0.00000   0.06932   0.06108   3.04389
    D7       -3.13312  -0.00445   0.00000  -0.08166  -0.08289   3.06718
    D8       -0.33765   0.00892   0.00000   0.14437   0.13873  -0.19892
    D9       -0.14419   0.00123   0.00000   0.07485   0.08156  -0.06264
   D10        2.80798   0.00646   0.00000   0.13942   0.14039   2.94837
   D11        2.93240   0.00622   0.00000   0.11533   0.11555   3.04796
   D12        0.13192  -0.00413   0.00000  -0.09055  -0.09670   0.03523
   D13       -0.30981   0.01413   0.00000   0.23741   0.23573  -0.07407
   D14       -3.11029   0.00378   0.00000   0.03153   0.02348  -3.08681
   D15        0.27405  -0.01300   0.00000  -0.20102  -0.19534   0.07872
   D16       -2.97579  -0.00300   0.00000  -0.06167  -0.06763  -3.04343
         Item               Value     Threshold  Converged?
 Maximum Force            0.053579     0.000450     NO 
 RMS     Force            0.015906     0.000300     NO 
 Maximum Displacement     0.221582     0.001800     NO 
 RMS     Displacement     0.076575     0.001200     NO 
 Predicted change in Energy=-2.288389D-02
 Lowest energy point so far.  Saving SCF results.
 GradGradGradGradGradGradGradGradGradGradGradGradGradGradGradGradGradGrad

 Leave Link  103 at Wed Mar 23 16:12:34 2016, MaxMem=    33554432 cpu:         0.0
 (Enter /opt/g09/g09/l202.exe)
                          Input orientation:                          
 ---------------------------------------------------------------------
 Center     Atomic      Atomic             Coordinates (Angstroms)
 Number     Number       Type             X           Y           Z
 ---------------------------------------------------------------------
      1          6           0        0.881101   -0.727156   -0.005731
      2          6           0       -0.384140   -1.225941    0.010503
      3          6           0       -0.381326    1.233863    0.060431
      4          6           0        0.893908    0.721468    0.003283
      5          1           0        1.809540    1.298296    0.082039
      6          1           0       -0.609591    2.300059    0.162006
      7          1           0       -0.659989   -2.267107    0.155301
      8          1           0        1.796139   -1.307251   -0.117077
      9         16           0       -1.560423    0.031273   -0.013246
 ---------------------------------------------------------------------
                    Distance matrix (angstroms):
                    1          2          3          4          5
     1  C    0.000000
     2  C    1.360104   0.000000
     3  C    2.333173   2.460312   0.000000
     4  C    1.448709   2.329347   1.375514   0.000000
     5  H    2.229834   3.345015   2.191920   1.085042   0.000000
     6  H    3.378510   3.536447   1.095078   2.185785   2.619565
     7  H    2.184568   1.086778   3.513324   3.371837   4.337746
     8  H    1.089130   2.185522   3.351139   2.223558   2.613179
     9  S    2.556621   1.721857   1.685800   2.549585   3.601538
                    6          7          8          9
     6  H    0.000000
     7  H    4.567449   0.000000
     8  H    4.344895   2.651052   0.000000
     9  S    2.466208   2.474215   3.615099   0.000000
 Stoichiometry    C4H4S
 Framework group  C1[X(C4H4S)]
 Deg. of freedom    21
 Full point group                 C1      NOp   1
 RotChk:  IX=3 Diff= 7.61D-02
 Largest Abelian subgroup         C1      NOp   1
 Largest concise Abelian subgroup C1      NOp   1
                         Standard orientation:                         
 ---------------------------------------------------------------------
 Center     Atomic      Atomic             Coordinates (Angstroms)
 Number     Number       Type             X           Y           Z
 ---------------------------------------------------------------------
      1          6           0       -1.282858    0.695116   -0.005563
      2          6           0       -0.035865    1.237479    0.021537
      3          6           0        0.047360   -1.221418    0.027826
      4          6           0       -1.244969   -0.753001   -0.022264
      5          1           0       -2.139929   -1.362809    0.044785
      6          1           0        0.312700   -2.280615    0.110841
      7          1           0        0.203236    2.284916    0.185219
      8          1           0       -2.217529    1.244741   -0.108066
      9         16           0        1.183719    0.022794   -0.022625
 ---------------------------------------------------------------------
 Rotational constants (GHZ):      8.0306536      5.4442195      3.2486597
 Leave Link  202 at Wed Mar 23 16:12:34 2016, MaxMem=    33554432 cpu:         0.0
 (Enter /opt/g09/g09/l301.exe)

 Semi-emprical parameters in input format:
 Method=8 CoreType=1 PeptideFC=0.0114505045 RIJScale=0.5291772086
 ****
 H       
 PQN=1 NValence=1 F0ss=0.4721553327 ZetaOverlap=1.1880780000 U=-0.4188110042
 Beta=-0.2268825074 CoreKO=1.0589197790 KON=0,0,0,1.0589197790 KON=1,0,1,1.0589197790
 KON=0,1,1,1.0589197790 KON=2,1,1,1.0589197790 EISol=-0.4188110042 EHeat=0.0830298228
 Alpha=1.5252601686
 GCore=0.0085277107,1.4001425905,2.2676713595
 GCore=0.0003534810,1.4001425905,3.4015070392
 GCore=-0.0012733648,0.5600570362,3.9684248791
 ****
 C       
 PQN=2,2 NValence=4 F0ss=0.4494442496 F0sp=0.4215147623 F0pp=0.3768030831 F2pp=0.1898715146
 G1sp=0.2679025821
 ZetaOverlap=1.8086650000,1.6851160000
 U=-1.9120180828,-1.4557965594
 Beta=-0.5775444233,-0.2836784428 DDN=0,1,0.8236736000 DDN=1,1,0.7268015000
 CoreKO=1.1124284736 KON=0,0,0,1.1124284736 KON=1,0,1,0.8219701441 KON=0,1,1,1.1124284736
 KON=2,1,1,0.7783928119 EISol=-4.4398989268 EHeat=0.2723305520 Alpha=1.4014062429
 DipHyp=1.6472524267
 GCore=0.0007885612,1.4001425905,3.0235618126
 GCore=0.0031892455,1.4001425905,3.4959933458
 GCore=-0.0013931594,1.4001425905,3.8739385724
 GCore=-0.0000875022,1.4001425905,5.0077742521
 ****
 S       
 PQN=3,3 NValence=6 F0ss=0.4331396397 F0sp=0.3183640731 F0pp=0.3136271218 F2pp=0.3456917167
 G1sp=0.2791629797
 ZetaOverlap=2.3665150000,1.6672630000,1.0000000000
 U=-2.0834683120,-1.7903186861
 Beta=-0.1440781557,-0.2905136336 DDN=0,1,0.9004265000 DDN=1,1,1.0036329000
 CoreKO=1.1543033468 KON=0,0,0,1.1543033468 KON=1,0,1,0.8464368816 KON=0,1,1,1.1543033468
 KON=2,1,1,0.7746001785 EISol=-7.0460287497 EHeat=0.1058151363 Alpha=1.3026480172
 DipHyp=1.8007493954
 GCore=-0.0353616377,1.2863644833,1.4563457902
 GCore=-0.0008238398,1.6425719595,2.8408498620
 GCore=0.0008565489,3.7964407093,3.7967867236
 ****
 
 Standard basis: VSTO-6G (5D, 7F)
 Ernie: Thresh=  0.10000D-02 Tol=  0.10000D-05 Strict=F.
  NNHCO=     0 NNPyr=     0 NCTC=     0               EPep=         0.000000000
    EC=        63.592963763  ECS=         1.642324510   EG=         0.141290731
   EHC=         0.000000000  EAt=       -26.480868474  AtH=         1.527256636
 EPDDG=         0.000000000  ECC=        65.376579004 EAtT=        28.008125109
 There are    24 symmetry adapted cartesian basis functions of A   symmetry.
 There are    24 symmetry adapted basis functions of A   symmetry.
    24 basis functions,   144 primitive gaussians,    24 cartesian basis functions
    13 alpha electrons       13 beta electrons
       nuclear repulsion energy        93.3847041130 Hartrees.



 Warning!  S  atom    9 may be hypervalent but has no d functions.



 IExCor=    0 DFT=F Ex=HF Corr=None ExCW=0 ScaHFX=  1.000000
 ScaDFX=  1.000000  1.000000  1.000000  1.000000 ScalE2=  1.000000  1.000000
 IRadAn=      0 IRanWt=     -1 IRanGd=            0 ICorTp=0 IEmpDi=  4
 Integral buffers will be    131072 words long.
 Regular integral format.
 Two-electron integral symmetry is turned off.
 Leave Link  301 at Wed Mar 23 16:12:34 2016, MaxMem=    33554432 cpu:         0.0
 (Enter /opt/g09/g09/l302.exe)
 Do NDO integrals.
 NPDir=0 NMtPBC=     1 NCelOv=     1 NCel=       1 NClECP=     1 NCelD=      1
         NCelK=      1 NCelE2=     1 NClLst=     1 CellRange=     0.0.
 One-electron integrals computed using PRISM.
 NBasis=    24 RedAO= F EigKep=  0.00D+00  NBF=    24
 NBsUse=    24 1.00D-04 EigRej=  0.00D+00 NBFU=    24
 Leave Link  302 at Wed Mar 23 16:12:34 2016, MaxMem=    33554432 cpu:         0.0
 (Enter /opt/g09/g09/l303.exe)
 DipDrv:  MaxL=1.
 Leave Link  303 at Wed Mar 23 16:12:34 2016, MaxMem=    33554432 cpu:         0.0
 (Enter /opt/g09/g09/l401.exe)
 Initial guess from the checkpoint file:  "/opt/g09/scratch/Gau-5215.chk"
 B after Tr=     0.000000    0.000000    0.000000
         Rot=    0.999774   -0.001100   -0.001294   -0.021171 Ang=  -2.43 deg.
 Guess basis will be translated and rotated to current coordinates.
 JPrj=0 DoOrth=T DoCkMO=T.
 Leave Link  401 at Wed Mar 23 16:12:34 2016, MaxMem=    33554432 cpu:         0.0
 (Enter /opt/g09/g09/l502.exe)
 Closed shell SCF:
 Using DIIS extrapolation, IDIIS=  1040.
 Overlap will be assumed to be unity.
 Two-electron integral symmetry not used.
 Keep J ints in memory in canonical form, NReq=888082.
 IVT=       79475 IEndB=       79475 NGot=    33554432 MDV=    33473473
 LenX=    33473473 LenY=    33472456
 Requested convergence on RMS density matrix=1.00D-08 within 128 cycles.
 Requested convergence on MAX density matrix=1.00D-06.
 Requested convergence on             energy=1.00D-06.
 No special actions if energy rises.
 FoFCou: FMM=F IPFlag=           0 FMFlag=           0 FMFlg1=           0
         NFxFlg=           0 DoJE=F BraDBF=F KetDBF=F FulRan=T
         wScrn=  0.000000 ICntrl=     600 IOpCl=  2 I1Cent=           0 NGrid=           0
         NMat0=    1 NMatS0=     54 NMatT0=    0 NMatD0=    1 NMtDS0=    0 NMtDT0=    0
 Symmetry not used in FoFCou.

 Cycle   1  Pass 1  IDiag  1:
 E= 0.660607706243752E-01
 DIIS: error= 1.26D-02 at cycle   1 NSaved=   1.
 NSaved= 1 IEnMin= 1 EnMin= 0.660607706243752E-01 IErMin= 1 ErrMin= 1.26D-02
 ErrMax= 1.26D-02  0.00D+00 EMaxC= 1.00D-01 BMatC= 4.02D-03 BMatP= 4.02D-03
 IDIUse=3 WtCom= 8.74D-01 WtEn= 1.26D-01
 Coeff-Com:  0.100D+01
 Coeff-En:   0.100D+01
 Coeff:      0.100D+01
 GapD=    2.000 DampG=2.000 DampE=0.500 DampFc=1.0000 IDamp=-1.
 RMSDP=5.18D-03 MaxDP=3.05D-02              OVMax= 0.00D+00

 Cycle   2  Pass 1  IDiag  3:
 E= 0.515261446043525E-01 Delta-E=       -0.014534626020 Rises=F Damp=F
 DIIS: error= 4.52D-03 at cycle   2 NSaved=   2.
 NSaved= 2 IEnMin= 2 EnMin= 0.515261446043525E-01 IErMin= 2 ErrMin= 4.52D-03
 ErrMax= 4.52D-03  0.00D+00 EMaxC= 1.00D-01 BMatC= 6.23D-04 BMatP= 4.02D-03
 IDIUse=3 WtCom= 9.55D-01 WtEn= 4.52D-02
 Coeff-Com: -0.494D+00 0.149D+01
 Coeff-En:   0.000D+00 0.100D+01
 Coeff:     -0.472D+00 0.147D+01
 Gap=     0.345 Goal=   None    Shift=    0.000
 RMSDP=3.73D-03 MaxDP=2.21D-02 DE=-1.45D-02 OVMax= 1.76D-02

 Cycle   3  Pass 1  IDiag  3:
 E= 0.477044759290806E-01 Delta-E=       -0.003821668675 Rises=F Damp=F
 DIIS: error= 1.10D-03 at cycle   3 NSaved=   3.
 NSaved= 3 IEnMin= 3 EnMin= 0.477044759290806E-01 IErMin= 3 ErrMin= 1.10D-03
 ErrMax= 1.10D-03  0.00D+00 EMaxC= 1.00D-01 BMatC= 4.72D-05 BMatP= 6.23D-04
 IDIUse=3 WtCom= 9.89D-01 WtEn= 1.10D-02
 Coeff-Com:  0.265D+00-0.995D+00 0.173D+01
 Coeff-En:   0.000D+00 0.000D+00 0.100D+01
 Coeff:      0.262D+00-0.984D+00 0.172D+01
 Gap=     0.345 Goal=   None    Shift=    0.000
 RMSDP=1.61D-03 MaxDP=8.58D-03 DE=-3.82D-03 OVMax= 1.02D-02

 Cycle   4  Pass 1  IDiag  3:
 E= 0.472952833055018E-01 Delta-E=       -0.000409192624 Rises=F Damp=F
 DIIS: error= 1.86D-04 at cycle   4 NSaved=   4.
 NSaved= 4 IEnMin= 4 EnMin= 0.472952833055018E-01 IErMin= 4 ErrMin= 1.86D-04
 ErrMax= 1.86D-04  0.00D+00 EMaxC= 1.00D-01 BMatC= 1.43D-06 BMatP= 4.72D-05
 IDIUse=3 WtCom= 9.98D-01 WtEn= 1.86D-03
 Coeff-Com: -0.131D+00 0.503D+00-0.963D+00 0.159D+01
 Coeff-En:   0.000D+00 0.000D+00 0.000D+00 0.100D+01
 Coeff:     -0.130D+00 0.502D+00-0.961D+00 0.159D+01
 Gap=     0.346 Goal=   None    Shift=    0.000
 RMSDP=2.94D-04 MaxDP=1.67D-03 DE=-4.09D-04 OVMax= 2.60D-03

 Cycle   5  Pass 1  IDiag  3:
 E= 0.472812824700810E-01 Delta-E=       -0.000014000835 Rises=F Damp=F
 DIIS: error= 5.73D-05 at cycle   5 NSaved=   5.
 NSaved= 5 IEnMin= 5 EnMin= 0.472812824700810E-01 IErMin= 5 ErrMin= 5.73D-05
 ErrMax= 5.73D-05  0.00D+00 EMaxC= 1.00D-01 BMatC= 1.08D-07 BMatP= 1.43D-06
 IDIUse=1 WtCom= 1.00D+00 WtEn= 0.00D+00
 Coeff-Com:  0.266D-01-0.104D+00 0.217D+00-0.595D+00 0.146D+01
 Coeff:      0.266D-01-0.104D+00 0.217D+00-0.595D+00 0.146D+01
 Gap=     0.345 Goal=   None    Shift=    0.000
 RMSDP=8.61D-05 MaxDP=5.23D-04 DE=-1.40D-05 OVMax= 7.90D-04

 Cycle   6  Pass 1  IDiag  3:
 E= 0.472801629418029E-01 Delta-E=       -0.000001119528 Rises=F Damp=F
 DIIS: error= 1.54D-05 at cycle   6 NSaved=   6.
 NSaved= 6 IEnMin= 6 EnMin= 0.472801629418029E-01 IErMin= 6 ErrMin= 1.54D-05
 ErrMax= 1.54D-05  0.00D+00 EMaxC= 1.00D-01 BMatC= 8.45D-09 BMatP= 1.08D-07
 IDIUse=1 WtCom= 1.00D+00 WtEn= 0.00D+00
 Coeff-Com: -0.373D-02 0.152D-01-0.365D-01 0.169D+00-0.697D+00 0.155D+01
 Coeff:     -0.373D-02 0.152D-01-0.365D-01 0.169D+00-0.697D+00 0.155D+01
 Gap=     0.346 Goal=   None    Shift=    0.000
 RMSDP=2.46D-05 MaxDP=1.51D-04 DE=-1.12D-06 OVMax= 2.14D-04

 Cycle   7  Pass 1  IDiag  3:
 E= 0.472800783777387E-01 Delta-E=       -0.000000084564 Rises=F Damp=F
 DIIS: error= 2.85D-06 at cycle   7 NSaved=   7.
 NSaved= 7 IEnMin= 7 EnMin= 0.472800783777387E-01 IErMin= 7 ErrMin= 2.85D-06
 ErrMax= 2.85D-06  0.00D+00 EMaxC= 1.00D-01 BMatC= 4.84D-10 BMatP= 8.45D-09
 IDIUse=1 WtCom= 1.00D+00 WtEn= 0.00D+00
 Coeff-Com:  0.596D-03-0.267D-02 0.820D-02-0.558D-01 0.278D+00-0.805D+00
 Coeff-Com:  0.158D+01
 Coeff:      0.596D-03-0.267D-02 0.820D-02-0.558D-01 0.278D+00-0.805D+00
 Coeff:      0.158D+01
 Gap=     0.346 Goal=   None    Shift=    0.000
 RMSDP=5.47D-06 MaxDP=3.02D-05 DE=-8.46D-08 OVMax= 4.33D-05

 Cycle   8  Pass 1  IDiag  3:
 E= 0.472800739940880E-01 Delta-E=       -0.000000004384 Rises=F Damp=F
 DIIS: error= 7.06D-07 at cycle   8 NSaved=   8.
 NSaved= 8 IEnMin= 8 EnMin= 0.472800739940880E-01 IErMin= 8 ErrMin= 7.06D-07
 ErrMax= 7.06D-07  0.00D+00 EMaxC= 1.00D-01 BMatC= 2.25D-11 BMatP= 4.84D-10
 IDIUse=1 WtCom= 1.00D+00 WtEn= 0.00D+00
 Coeff-Com: -0.107D-03 0.541D-03-0.212D-02 0.182D-01-0.973D-01 0.300D+00
 Coeff-Com: -0.727D+00 0.151D+01
 Coeff:     -0.107D-03 0.541D-03-0.212D-02 0.182D-01-0.973D-01 0.300D+00
 Coeff:     -0.727D+00 0.151D+01
 Gap=     0.346 Goal=   None    Shift=    0.000
 RMSDP=1.09D-06 MaxDP=5.00D-06 DE=-4.38D-09 OVMax= 1.01D-05

 Cycle   9  Pass 1  IDiag  3:
 E= 0.472800737952923E-01 Delta-E=       -0.000000000199 Rises=F Damp=F
 DIIS: error= 1.95D-07 at cycle   9 NSaved=   9.
 NSaved= 9 IEnMin= 9 EnMin= 0.472800737952923E-01 IErMin= 9 ErrMin= 1.95D-07
 ErrMax= 1.95D-07  0.00D+00 EMaxC= 1.00D-01 BMatC= 1.66D-12 BMatP= 2.25D-11
 IDIUse=1 WtCom= 1.00D+00 WtEn= 0.00D+00
 Coeff-Com:  0.100D-04-0.569D-04 0.260D-03-0.246D-02 0.139D-01-0.465D-01
 Coeff-Com:  0.138D+00-0.501D+00 0.140D+01
 Coeff:      0.100D-04-0.569D-04 0.260D-03-0.246D-02 0.139D-01-0.465D-01
 Coeff:      0.138D+00-0.501D+00 0.140D+01
 Gap=     0.346 Goal=   None    Shift=    0.000
 RMSDP=2.98D-07 MaxDP=1.93D-06 DE=-1.99D-10 OVMax= 3.70D-06

 Cycle  10  Pass 1  IDiag  3:
 E= 0.472800737790635E-01 Delta-E=       -0.000000000016 Rises=F Damp=F
 DIIS: error= 8.21D-08 at cycle  10 NSaved=  10.
 NSaved=10 IEnMin=10 EnMin= 0.472800737790635E-01 IErMin=10 ErrMin= 8.21D-08
 ErrMax= 8.21D-08  0.00D+00 EMaxC= 1.00D-01 BMatC= 2.11D-13 BMatP= 1.66D-12
 IDIUse=1 WtCom= 1.00D+00 WtEn= 0.00D+00
 Coeff-Com:  0.727D-06-0.401D-05 0.225D-04-0.266D-03 0.112D-02-0.156D-02
 Coeff-Com: -0.114D-01 0.149D+00-0.841D+00 0.170D+01
 Coeff:      0.727D-06-0.401D-05 0.225D-04-0.266D-03 0.112D-02-0.156D-02
 Coeff:     -0.114D-01 0.149D+00-0.841D+00 0.170D+01
 Gap=     0.346 Goal=   None    Shift=    0.000
 RMSDP=1.37D-07 MaxDP=9.65D-07 DE=-1.62D-11 OVMax= 1.89D-06

 Cycle  11  Pass 1  IDiag  3:
 E= 0.472800737766761E-01 Delta-E=       -0.000000000002 Rises=F Damp=F
 DIIS: error= 1.80D-08 at cycle  11 NSaved=  11.
 NSaved=11 IEnMin=11 EnMin= 0.472800737766761E-01 IErMin=11 ErrMin= 1.80D-08
 ErrMax= 1.80D-08  0.00D+00 EMaxC= 1.00D-01 BMatC= 1.37D-14 BMatP= 2.11D-13
 IDIUse=1 WtCom= 1.00D+00 WtEn= 0.00D+00
 Coeff-Com:  0.974D-06-0.694D-06-0.235D-04 0.374D-03-0.192D-02 0.489D-02
 Coeff-Com: -0.380D-02-0.582D-01 0.447D+00-0.111D+01 0.172D+01
 Coeff:      0.974D-06-0.694D-06-0.235D-04 0.374D-03-0.192D-02 0.489D-02
 Coeff:     -0.380D-02-0.582D-01 0.447D+00-0.111D+01 0.172D+01
 Gap=     0.346 Goal=   None    Shift=    0.000
 RMSDP=3.40D-08 MaxDP=2.03D-07 DE=-2.39D-12 OVMax= 4.82D-07

 Cycle  12  Pass 1  IDiag  3:
 E= 0.472800737765766E-01 Delta-E=        0.000000000000 Rises=F Damp=F
 DIIS: error= 4.88D-09 at cycle  12 NSaved=  12.
 NSaved=12 IEnMin=12 EnMin= 0.472800737765766E-01 IErMin=12 ErrMin= 4.88D-09
 ErrMax= 4.88D-09  0.00D+00 EMaxC= 1.00D-01 BMatC= 8.72D-16 BMatP= 1.37D-14
 IDIUse=1 WtCom= 1.00D+00 WtEn= 0.00D+00
 Coeff-Com: -0.566D-06 0.597D-06 0.115D-04-0.190D-03 0.993D-03-0.259D-02
 Coeff-Com:  0.268D-02 0.238D-01-0.199D+00 0.515D+00-0.973D+00 0.163D+01
 Coeff:     -0.566D-06 0.597D-06 0.115D-04-0.190D-03 0.993D-03-0.259D-02
 Coeff:      0.268D-02 0.238D-01-0.199D+00 0.515D+00-0.973D+00 0.163D+01
 Gap=     0.346 Goal=   None    Shift=    0.000
 RMSDP=7.89D-09 MaxDP=5.16D-08 DE=-9.95D-14 OVMax= 9.88D-08

 Cycle  13  Pass 2  IDiag  1:
 SCF Done:  E(RAM1) =  0.472800737766E-01 A.U. after   13 cycles
            NFock= 12  Conv=0.79D-08     -V/T= 1.0033
 KE=-1.451447615908D+01 PE=-1.551052372100D+02 EE= 7.628228932980D+01
 Leave Link  502 at Wed Mar 23 16:12:34 2016, MaxMem=    33554432 cpu:         0.0
 (Enter /opt/g09/g09/l701.exe)
 Compute integral first derivatives.
 ... and contract with generalized density number  0.
 Leave Link  701 at Wed Mar 23 16:12:34 2016, MaxMem=    33554432 cpu:         0.0
 (Enter /opt/g09/g09/l702.exe)
 L702 exits ... SP integral derivatives will be done elsewhere.
 Leave Link  702 at Wed Mar 23 16:12:34 2016, MaxMem=    33554432 cpu:         0.0
 (Enter /opt/g09/g09/l703.exe)
 Compute integral first derivatives, UseDBF=F ICtDFT=           0.
 Integral derivatives from FoFJK, PRISM(SPDF).
 Calling FoFJK, ICntrl=      2127 FMM=F ISym2X=0 I1Cent= 0 IOpClX= 0 NMat=1 NMatS=1 NMatT=0.
 FoFJK:  IHMeth= 8 ICntrl=    2127 DoSepK=F KAlg= 0 I1Cent=   0 FoldK=F
 IRaf=         0 NMat=   1 IRICut=       1 DoRegI=T DoRafI=F ISym2E= 0.
 FoFCou: FMM=F IPFlag=           0 FMFlag=      100000 FMFlg1=         800
         NFxFlg=           0 DoJE=F BraDBF=F KetDBF=F FulRan=T
         wScrn=  0.000000 ICntrl=    2127 IOpCl=  0 I1Cent=           0 NGrid=           0
         NMat0=    1 NMatS0=      1 NMatT0=    0 NMatD0=    1 NMtDS0=    0 NMtDT0=    0
 Symmetry not used in FoFCou.
 Leave Link  703 at Wed Mar 23 16:12:34 2016, MaxMem=    33554432 cpu:         0.0
 (Enter /opt/g09/g09/l716.exe)
 Dipole        = 3.10878958D-02 1.72317219D-03 5.11523406D-02
 ***** Axes restored to original set *****
 -------------------------------------------------------------------
 Center     Atomic                   Forces (Hartrees/Bohr)
 Number     Number              X              Y              Z
 -------------------------------------------------------------------
      1        6           0.008103781    0.017291310   -0.010501413
      2        6          -0.021187441    0.007199325    0.006782877
      3        6           0.001226130    0.001548321   -0.003499575
      4        6          -0.009429347   -0.012483166    0.009658625
      5        1           0.003716437    0.002390117   -0.003133346
      6        1          -0.001634429   -0.004545430   -0.002740076
      7        1          -0.001756653   -0.001024285   -0.006228926
      8        1           0.002043049   -0.002062490    0.004739009
      9       16           0.018918472   -0.008313703    0.004922825
 -------------------------------------------------------------------
 Cartesian Forces:  Max     0.021187441 RMS     0.008522581
 Leave Link  716 at Wed Mar 23 16:12:34 2016, MaxMem=    33554432 cpu:         0.0
 (Enter /opt/g09/g09/l103.exe)

 GradGradGradGradGradGradGradGradGradGradGradGradGradGradGradGradGradGrad
 Berny optimization.
 Using GEDIIS/GDIIS optimizer.
 FormGI is forming the generalized inverse of G from B-inverse, IUseBI=4.
 Internal  Forces:  Max     0.018087847 RMS     0.004521912
 Search for a local minimum.
 Step number   2 out of a maximum of   48
 All quantities printed in internal units (Hartrees-Bohrs-Radians)
 RMS Force = .45219D-02 SwitMx=.10000D-02 MixMth= 1
 Mixed Optimization -- RFO/linear search
 Update second derivatives using D2CorX and points    1    2
 DE= -2.15D-02 DEPred=-2.29D-02 R= 9.41D-01
 TightC=F SS=  1.41D+00  RLast= 5.35D-01 DXNew= 5.0454D-01 1.6040D+00
 Trust test= 9.41D-01 RLast= 5.35D-01 DXMaxT set to 5.05D-01
 ITU=  1  0
 Use linear search instead of GDIIS.
     Eigenvalues ---    0.01438   0.01555   0.02089   0.02155   0.02449
     Eigenvalues ---    0.02655   0.15466   0.15848   0.15870   0.15952
     Eigenvalues ---    0.21050   0.22273   0.25025   0.31399   0.32526
     Eigenvalues ---    0.33718   0.33862   0.39515   0.43036   0.51348
     Eigenvalues ---    0.56147
 RFO step:  Lambda=-4.43489201D-03 EMin= 1.43787895D-02
 Quartic linear search produced a step of  0.29846.
 Iteration  1 RMS(Cart)=  0.06029654 RMS(Int)=  0.00406119
 Iteration  2 RMS(Cart)=  0.00400085 RMS(Int)=  0.00204193
 Iteration  3 RMS(Cart)=  0.00001097 RMS(Int)=  0.00204191
 Iteration  4 RMS(Cart)=  0.00000000 RMS(Int)=  0.00204191
 ITry= 1 IFail=0 DXMaxC= 2.17D-01 DCOld= 1.00D+10 DXMaxT= 5.05D-01 DXLimC= 3.00D+00 Rises=F
 Variable       Old X    -DE/DX   Delta X   Delta X   Delta X     New X
                                 (Linear)    (Quad)   (Total)
    R1        2.57022   0.01059  -0.00205   0.02881   0.02734   2.59756
    R2        2.73766  -0.00958  -0.02534  -0.01281  -0.03770   2.69996
    R3        2.05816   0.00233   0.02066  -0.01186   0.00880   2.06696
    R4        2.05371   0.00060  -0.00715   0.00903   0.00187   2.05558
    R5        3.25384  -0.01809  -0.02747  -0.05227  -0.07976   3.17408
    R6        2.59934  -0.00430   0.01922  -0.02830  -0.00931   2.59004
    R7        2.06940  -0.00434  -0.00252  -0.01393  -0.01645   2.05295
    R8        3.18570  -0.00619  -0.01688  -0.00804  -0.02557   3.16013
    R9        2.05043   0.00418   0.03394  -0.01937   0.01457   2.06500
    A1        1.95504  -0.00088  -0.00358   0.00370  -0.00048   1.95455
    A2        2.19870  -0.00003   0.00623  -0.00751  -0.00162   2.19708
    A3        2.12445   0.00105   0.00044   0.00537   0.00525   2.12970
    A4        2.20067   0.00318   0.00844   0.01545   0.02243   2.22310
    A5        1.94719  -0.00278   0.00095  -0.00815  -0.00948   1.93772
    A6        2.12698  -0.00012  -0.00680   0.00311  -0.00518   2.12179
    A7        2.16493   0.00328   0.02878  -0.00286   0.02612   2.19105
    A8        1.96155  -0.00129  -0.01871   0.00910  -0.01210   1.94945
    A9        2.15653  -0.00200  -0.00866  -0.00553  -0.01395   2.14258
   A10        1.94395   0.00075   0.01736  -0.00870   0.00256   1.94651
   A11        2.14064  -0.00009  -0.01193   0.01803   0.00129   2.14193
   A12        2.19112  -0.00024   0.00926  -0.00079   0.00358   2.19470
   A13        1.61326   0.00447   0.01711   0.00863   0.02293   1.63619
    D1       -2.97323  -0.00245  -0.00835  -0.12767  -0.13577  -3.10900
    D2        0.03109  -0.00018   0.00809  -0.04254  -0.03478  -0.00369
    D3        0.27478  -0.00402  -0.03195  -0.14463  -0.17753   0.09725
    D4       -3.00409  -0.00175  -0.01551  -0.05950  -0.07653  -3.08063
    D5        0.02680  -0.00182  -0.04791   0.00843  -0.04092  -0.01412
    D6        3.04389   0.00162   0.01823   0.07884   0.09389   3.13778
    D7        3.06718  -0.00039  -0.02474   0.02367  -0.00148   3.06569
    D8       -0.19892   0.00305   0.04140   0.09407   0.13333  -0.06559
    D9       -0.06264   0.00165   0.02434   0.05184   0.07844   0.01580
   D10        2.94837   0.00412   0.04190   0.13399   0.17518   3.12355
   D11        3.04796   0.00271   0.03449   0.07009   0.10419  -3.13104
   D12        0.03523  -0.00087  -0.02886  -0.00438  -0.03535  -0.00013
   D13       -0.07407   0.00319   0.07036   0.03067   0.09979   0.02571
   D14       -3.08681  -0.00039   0.00701  -0.04379  -0.03975  -3.12656
   D15        0.07872  -0.00259  -0.05830  -0.04568  -0.10289  -0.02418
   D16       -3.04343  -0.00219  -0.02018  -0.08491  -0.10768   3.13208
         Item               Value     Threshold  Converged?
 Maximum Force            0.018088     0.000450     NO 
 RMS     Force            0.004522     0.000300     NO 
 Maximum Displacement     0.217197     0.001800     NO 
 RMS     Displacement     0.060375     0.001200     NO 
 Predicted change in Energy=-3.496726D-03
 Lowest energy point so far.  Saving SCF results.
 GradGradGradGradGradGradGradGradGradGradGradGradGradGradGradGradGradGrad

 Leave Link  103 at Wed Mar 23 16:12:34 2016, MaxMem=    33554432 cpu:         0.0
 (Enter /opt/g09/g09/l202.exe)
                          Input orientation:                          
 ---------------------------------------------------------------------
 Center     Atomic      Atomic             Coordinates (Angstroms)
 Number     Number       Type             X           Y           Z
 ---------------------------------------------------------------------
      1          6           0        0.884212   -0.712401    0.012137
      2          6           0       -0.394239   -1.217067    0.030024
      3          6           0       -0.374727    1.228920    0.069454
      4          6           0        0.896010    0.715914    0.045668
      5          1           0        1.820002    1.299288    0.041421
      6          1           0       -0.629137    2.284933    0.087335
      7          1           0       -0.690944   -2.263537    0.040365
      8          1           0        1.803391   -1.297988   -0.080460
      9         16           0       -1.529350    0.019443    0.091566
 ---------------------------------------------------------------------
                    Distance matrix (angstroms):
                    1          2          3          4          5
     1  C    0.000000
     2  C    1.374571   0.000000
     3  C    2.314506   2.446382   0.000000
     4  C    1.428757   2.324091   1.370588   0.000000
     5  H    2.218885   3.351870   2.196035   1.092751   0.000000
     6  H    3.358556   3.510337   1.086374   2.188523   2.640433
     7  H    2.210868   1.087769   3.506864   3.375733   4.358735
     8  H    1.093789   2.201893   3.339451   2.212475   2.600187
     9  S    2.523329   1.679649   1.672268   2.523796   3.585900
                    6          7          8          9
     6  H    0.000000
     7  H    4.549133   0.000000
     8  H    4.333898   2.677422   0.000000
     9  S    2.437796   2.432600   3.587809   0.000000
 Stoichiometry    C4H4S
 Framework group  C1[X(C4H4S)]
 Deg. of freedom    21
 Full point group                 C1      NOp   1
 RotChk:  IX=2 Diff= 6.37D-02
 Largest Abelian subgroup         C1      NOp   1
 Largest concise Abelian subgroup C1      NOp   1
                         Standard orientation:                         
 ---------------------------------------------------------------------
 Center     Atomic      Atomic             Coordinates (Angstroms)
 Number     Number       Type             X           Y           Z
 ---------------------------------------------------------------------
      1          6           0       -1.251085    0.721734    0.003667
      2          6           0        0.027205    1.227057   -0.004522
      3          6           0        0.009592   -1.219255   -0.010403
      4          6           0       -1.261481   -0.706968    0.010744
      5          1           0       -2.185045   -1.290942    0.021243
      6          1           0        0.264744   -2.275202   -0.019388
      7          1           0        0.323743    2.273401    0.017176
      8          1           0       -2.172672    1.308174   -0.052366
      9         16           0        1.163990   -0.009427    0.002276
 ---------------------------------------------------------------------
 Rotational constants (GHZ):      8.1519216      5.5660851      3.3079512
 Leave Link  202 at Wed Mar 23 16:12:34 2016, MaxMem=    33554432 cpu:         0.0
 (Enter /opt/g09/g09/l301.exe)

 Semi-emprical parameters in input format:
 Method=8 CoreType=1 PeptideFC=0.0114505045 RIJScale=0.5291772086
 ****
 H       
 PQN=1 NValence=1 F0ss=0.4721553327 ZetaOverlap=1.1880780000 U=-0.4188110042
 Beta=-0.2268825074 CoreKO=1.0589197790 KON=0,0,0,1.0589197790 KON=1,0,1,1.0589197790
 KON=0,1,1,1.0589197790 KON=2,1,1,1.0589197790 EISol=-0.4188110042 EHeat=0.0830298228
 Alpha=1.5252601686
 GCore=0.0085277107,1.4001425905,2.2676713595
 GCore=0.0003534810,1.4001425905,3.4015070392
 GCore=-0.0012733648,0.5600570362,3.9684248791
 ****
 C       
 PQN=2,2 NValence=4 F0ss=0.4494442496 F0sp=0.4215147623 F0pp=0.3768030831 F2pp=0.1898715146
 G1sp=0.2679025821
 ZetaOverlap=1.8086650000,1.6851160000
 U=-1.9120180828,-1.4557965594
 Beta=-0.5775444233,-0.2836784428 DDN=0,1,0.8236736000 DDN=1,1,0.7268015000
 CoreKO=1.1124284736 KON=0,0,0,1.1124284736 KON=1,0,1,0.8219701441 KON=0,1,1,1.1124284736
 KON=2,1,1,0.7783928119 EISol=-4.4398989268 EHeat=0.2723305520 Alpha=1.4014062429
 DipHyp=1.6472524267
 GCore=0.0007885612,1.4001425905,3.0235618126
 GCore=0.0031892455,1.4001425905,3.4959933458
 GCore=-0.0013931594,1.4001425905,3.8739385724
 GCore=-0.0000875022,1.4001425905,5.0077742521
 ****
 S       
 PQN=3,3 NValence=6 F0ss=0.4331396397 F0sp=0.3183640731 F0pp=0.3136271218 F2pp=0.3456917167
 G1sp=0.2791629797
 ZetaOverlap=2.3665150000,1.6672630000,1.0000000000
 U=-2.0834683120,-1.7903186861
 Beta=-0.1440781557,-0.2905136336 DDN=0,1,0.9004265000 DDN=1,1,1.0036329000
 CoreKO=1.1543033468 KON=0,0,0,1.1543033468 KON=1,0,1,0.8464368816 KON=0,1,1,1.1543033468
 KON=2,1,1,0.7746001785 EISol=-7.0460287497 EHeat=0.1058151363 Alpha=1.3026480172
 DipHyp=1.8007493954
 GCore=-0.0353616377,1.2863644833,1.4563457902
 GCore=-0.0008238398,1.6425719595,2.8408498620
 GCore=0.0008565489,3.7964407093,3.7967867236
 ****
 
 Standard basis: VSTO-6G (5D, 7F)
 Ernie: Thresh=  0.10000D-02 Tol=  0.10000D-05 Strict=F.
  NNHCO=     0 NNPyr=     0 NCTC=     0               EPep=         0.000000000
    EC=        63.904248003  ECS=         1.676085723   EG=         0.137407103
   EHC=         0.000000000  EAt=       -26.480868474  AtH=         1.527256636
 EPDDG=         0.000000000  ECC=        65.717740828 EAtT=        28.008125109
 There are    24 symmetry adapted cartesian basis functions of A   symmetry.
 There are    24 symmetry adapted basis functions of A   symmetry.
    24 basis functions,   144 primitive gaussians,    24 cartesian basis functions
    13 alpha electrons       13 beta electrons
       nuclear repulsion energy        93.7258659374 Hartrees.



 Warning!  S  atom    9 may be hypervalent but has no d functions.



 IExCor=    0 DFT=F Ex=HF Corr=None ExCW=0 ScaHFX=  1.000000
 ScaDFX=  1.000000  1.000000  1.000000  1.000000 ScalE2=  1.000000  1.000000
 IRadAn=      0 IRanWt=     -1 IRanGd=            0 ICorTp=0 IEmpDi=  4
 Integral buffers will be    131072 words long.
 Regular integral format.
 Two-electron integral symmetry is turned off.
 Leave Link  301 at Wed Mar 23 16:12:34 2016, MaxMem=    33554432 cpu:         0.0
 (Enter /opt/g09/g09/l302.exe)
 Do NDO integrals.
 NPDir=0 NMtPBC=     1 NCelOv=     1 NCel=       1 NClECP=     1 NCelD=      1
         NCelK=      1 NCelE2=     1 NClLst=     1 CellRange=     0.0.
 One-electron integrals computed using PRISM.
 NBasis=    24 RedAO= F EigKep=  0.00D+00  NBF=    24
 NBsUse=    24 1.00D-04 EigRej=  0.00D+00 NBFU=    24
 Leave Link  302 at Wed Mar 23 16:12:34 2016, MaxMem=    33554432 cpu:         0.0
 (Enter /opt/g09/g09/l303.exe)
 DipDrv:  MaxL=1.
 Leave Link  303 at Wed Mar 23 16:12:34 2016, MaxMem=    33554432 cpu:         0.0
 (Enter /opt/g09/g09/l401.exe)
 Initial guess from the checkpoint file:  "/opt/g09/scratch/Gau-5215.chk"
 B after Tr=     0.000000    0.000000    0.000000
         Rot=    0.999867   -0.000010   -0.000193    0.016321 Ang=  -1.87 deg.
 Guess basis will be translated and rotated to current coordinates.
 JPrj=0 DoOrth=T DoCkMO=T.
 Leave Link  401 at Wed Mar 23 16:12:34 2016, MaxMem=    33554432 cpu:         0.0
 (Enter /opt/g09/g09/l502.exe)
 Closed shell SCF:
 Using DIIS extrapolation, IDIIS=  1040.
 Overlap will be assumed to be unity.
 Two-electron integral symmetry not used.
 Keep J ints in memory in canonical form, NReq=888082.
 IVT=       79475 IEndB=       79475 NGot=    33554432 MDV=    33473473
 LenX=    33473473 LenY=    33472456
 Requested convergence on RMS density matrix=1.00D-08 within 128 cycles.
 Requested convergence on MAX density matrix=1.00D-06.
 Requested convergence on             energy=1.00D-06.
 No special actions if energy rises.
 FoFCou: FMM=F IPFlag=           0 FMFlag=           0 FMFlg1=           0
         NFxFlg=           0 DoJE=F BraDBF=F KetDBF=F FulRan=T
         wScrn=  0.000000 ICntrl=     600 IOpCl=  2 I1Cent=           0 NGrid=           0
         NMat0=    1 NMatS0=     54 NMatT0=    0 NMatD0=    1 NMtDS0=    0 NMtDT0=    0
 Symmetry not used in FoFCou.

 Cycle   1  Pass 1  IDiag  1:
 E= 0.510872495810020E-01
 DIIS: error= 6.14D-03 at cycle   1 NSaved=   1.
 NSaved= 1 IEnMin= 1 EnMin= 0.510872495810020E-01 IErMin= 1 ErrMin= 6.14D-03
 ErrMax= 6.14D-03  0.00D+00 EMaxC= 1.00D-01 BMatC= 1.26D-03 BMatP= 1.26D-03
 IDIUse=3 WtCom= 9.39D-01 WtEn= 6.14D-02
 Coeff-Com:  0.100D+01
 Coeff-En:   0.100D+01
 Coeff:      0.100D+01
 GapD=    2.000 DampG=2.000 DampE=1.000 DampFc=2.0000 IDamp=-1.
 RMSDP=3.26D-03 MaxDP=1.82D-02              OVMax= 0.00D+00

 Cycle   2  Pass 1  IDiag  3:
 E= 0.457392960721563E-01 Delta-E=       -0.005347953509 Rises=F Damp=F
 DIIS: error= 2.85D-03 at cycle   2 NSaved=   2.
 NSaved= 2 IEnMin= 2 EnMin= 0.457392960721563E-01 IErMin= 2 ErrMin= 2.85D-03
 ErrMax= 2.85D-03  0.00D+00 EMaxC= 1.00D-01 BMatC= 2.35D-04 BMatP= 1.26D-03
 IDIUse=3 WtCom= 9.72D-01 WtEn= 2.85D-02
 Coeff-Com: -0.602D+00 0.160D+01
 Coeff-En:   0.000D+00 0.100D+01
 Coeff:     -0.585D+00 0.158D+01
 Gap=     0.348 Goal=   None    Shift=    0.000
 RMSDP=2.58D-03 MaxDP=1.44D-02 DE=-5.35D-03 OVMax= 1.37D-02

 Cycle   3  Pass 1  IDiag  3:
 E= 0.441431608034719E-01 Delta-E=       -0.001596135269 Rises=F Damp=F
 DIIS: error= 5.83D-04 at cycle   3 NSaved=   3.
 NSaved= 3 IEnMin= 3 EnMin= 0.441431608034719E-01 IErMin= 3 ErrMin= 5.83D-04
 ErrMax= 5.83D-04  0.00D+00 EMaxC= 1.00D-01 BMatC= 1.42D-05 BMatP= 2.35D-04
 IDIUse=3 WtCom= 9.94D-01 WtEn= 5.83D-03
 Coeff-Com:  0.279D+00-0.914D+00 0.164D+01
 Coeff-En:   0.000D+00 0.000D+00 0.100D+01
 Coeff:      0.277D+00-0.909D+00 0.163D+01
 Gap=     0.348 Goal=   None    Shift=    0.000
 RMSDP=8.90D-04 MaxDP=3.93D-03 DE=-1.60D-03 OVMax= 7.47D-03

 Cycle   4  Pass 1  IDiag  3:
 E= 0.440169453460442E-01 Delta-E=       -0.000126215457 Rises=F Damp=F
 DIIS: error= 1.15D-04 at cycle   4 NSaved=   4.
 NSaved= 4 IEnMin= 4 EnMin= 0.440169453460442E-01 IErMin= 4 ErrMin= 1.15D-04
 ErrMax= 1.15D-04  0.00D+00 EMaxC= 1.00D-01 BMatC= 6.10D-07 BMatP= 1.42D-05
 IDIUse=3 WtCom= 9.99D-01 WtEn= 1.15D-03
 Coeff-Com: -0.156D+00 0.523D+00-0.104D+01 0.168D+01
 Coeff-En:   0.000D+00 0.000D+00 0.000D+00 0.100D+01
 Coeff:     -0.156D+00 0.523D+00-0.104D+01 0.168D+01
 Gap=     0.348 Goal=   None    Shift=    0.000
 RMSDP=2.05D-04 MaxDP=1.15D-03 DE=-1.26D-04 OVMax= 2.53D-03

 Cycle   5  Pass 1  IDiag  3:
 E= 0.440105912040423E-01 Delta-E=       -0.000006354142 Rises=F Damp=F
 DIIS: error= 3.04D-05 at cycle   5 NSaved=   5.
 NSaved= 5 IEnMin= 5 EnMin= 0.440105912040423E-01 IErMin= 5 ErrMin= 3.04D-05
 ErrMax= 3.04D-05  0.00D+00 EMaxC= 1.00D-01 BMatC= 4.00D-08 BMatP= 6.10D-07
 IDIUse=1 WtCom= 1.00D+00 WtEn= 0.00D+00
 Coeff-Com:  0.318D-01-0.108D+00 0.234D+00-0.595D+00 0.144D+01
 Coeff:      0.318D-01-0.108D+00 0.234D+00-0.595D+00 0.144D+01
 Gap=     0.348 Goal=   None    Shift=    0.000
 RMSDP=5.35D-05 MaxDP=3.16D-04 DE=-6.35D-06 OVMax= 6.65D-04

 Cycle   6  Pass 1  IDiag  3:
 E= 0.440101823882912E-01 Delta-E=       -0.000000408816 Rises=F Damp=F
 DIIS: error= 7.28D-06 at cycle   6 NSaved=   6.
 NSaved= 6 IEnMin= 6 EnMin= 0.440101823882912E-01 IErMin= 6 ErrMin= 7.28D-06
 ErrMax= 7.28D-06  0.00D+00 EMaxC= 1.00D-01 BMatC= 2.79D-09 BMatP= 4.00D-08
 IDIUse=1 WtCom= 1.00D+00 WtEn= 0.00D+00
 Coeff-Com: -0.413D-02 0.145D-01-0.366D-01 0.158D+00-0.650D+00 0.152D+01
 Coeff:     -0.413D-02 0.145D-01-0.366D-01 0.158D+00-0.650D+00 0.152D+01
 Gap=     0.348 Goal=   None    Shift=    0.000
 RMSDP=1.28D-05 MaxDP=6.26D-05 DE=-4.09D-07 OVMax= 1.22D-04

 Cycle   7  Pass 1  IDiag  3:
 E= 0.440101573490779E-01 Delta-E=       -0.000000025039 Rises=F Damp=F
 DIIS: error= 1.57D-06 at cycle   7 NSaved=   7.
 NSaved= 7 IEnMin= 7 EnMin= 0.440101573490779E-01 IErMin= 7 ErrMin= 1.57D-06
 ErrMax= 1.57D-06  0.00D+00 EMaxC= 1.00D-01 BMatC= 1.54D-10 BMatP= 2.79D-09
 IDIUse=1 WtCom= 1.00D+00 WtEn= 0.00D+00
 Coeff-Com:  0.118D-02-0.426D-02 0.121D-01-0.646D-01 0.293D+00-0.830D+00
 Coeff-Com:  0.159D+01
 Coeff:      0.118D-02-0.426D-02 0.121D-01-0.646D-01 0.293D+00-0.830D+00
 Coeff:      0.159D+01
 Gap=     0.348 Goal=   None    Shift=    0.000
 RMSDP=2.85D-06 MaxDP=1.48D-05 DE=-2.50D-08 OVMax= 2.23D-05

 Cycle   8  Pass 1  IDiag  3:
 E= 0.440101560695325E-01 Delta-E=       -0.000000001280 Rises=F Damp=F
 DIIS: error= 3.88D-07 at cycle   8 NSaved=   8.
 NSaved= 8 IEnMin= 8 EnMin= 0.440101560695325E-01 IErMin= 8 ErrMin= 3.88D-07
 ErrMax= 3.88D-07  0.00D+00 EMaxC= 1.00D-01 BMatC= 7.03D-12 BMatP= 1.54D-10
 IDIUse=1 WtCom= 1.00D+00 WtEn= 0.00D+00
 Coeff-Com: -0.509D-03 0.185D-02-0.544D-02 0.307D-01-0.142D+00 0.413D+00
 Coeff-Com: -0.903D+00 0.161D+01
 Coeff:     -0.509D-03 0.185D-02-0.544D-02 0.307D-01-0.142D+00 0.413D+00
 Coeff:     -0.903D+00 0.161D+01
 Gap=     0.348 Goal=   None    Shift=    0.000
 RMSDP=6.15D-07 MaxDP=3.44D-06 DE=-1.28D-09 OVMax= 5.18D-06

 Cycle   9  Pass 1  IDiag  3:
 E= 0.440101560058253E-01 Delta-E=       -0.000000000064 Rises=F Damp=F
 DIIS: error= 1.08D-07 at cycle   9 NSaved=   9.
 NSaved= 9 IEnMin= 9 EnMin= 0.440101560058253E-01 IErMin= 9 ErrMin= 1.08D-07
 ErrMax= 1.08D-07  0.00D+00 EMaxC= 1.00D-01 BMatC= 5.43D-13 BMatP= 7.03D-12
 IDIUse=1 WtCom= 1.00D+00 WtEn= 0.00D+00
 Coeff-Com:  0.308D-03-0.111D-02 0.323D-02-0.180D-01 0.829D-01-0.240D+00
 Coeff-Com:  0.538D+00-0.113D+01 0.176D+01
 Coeff:      0.308D-03-0.111D-02 0.323D-02-0.180D-01 0.829D-01-0.240D+00
 Coeff:      0.538D+00-0.113D+01 0.176D+01
 Gap=     0.348 Goal=   None    Shift=    0.000
 RMSDP=2.07D-07 MaxDP=1.13D-06 DE=-6.37D-11 OVMax= 2.23D-06

 Cycle  10  Pass 1  IDiag  3:
 E= 0.440101559998709E-01 Delta-E=       -0.000000000006 Rises=F Damp=F
 DIIS: error= 2.98D-08 at cycle  10 NSaved=  10.
 NSaved=10 IEnMin=10 EnMin= 0.440101559998709E-01 IErMin=10 ErrMin= 2.98D-08
 ErrMax= 2.98D-08  0.00D+00 EMaxC= 1.00D-01 BMatC= 3.44D-14 BMatP= 5.43D-13
 IDIUse=1 WtCom= 1.00D+00 WtEn= 0.00D+00
 Coeff-Com: -0.123D-03 0.440D-03-0.126D-02 0.691D-02-0.316D-01 0.914D-01
 Coeff-Com: -0.207D+00 0.457D+00-0.886D+00 0.157D+01
 Coeff:     -0.123D-03 0.440D-03-0.126D-02 0.691D-02-0.316D-01 0.914D-01
 Coeff:     -0.207D+00 0.457D+00-0.886D+00 0.157D+01
 Gap=     0.348 Goal=   None    Shift=    0.000
 RMSDP=5.15D-08 MaxDP=3.05D-07 DE=-5.95D-12 OVMax= 6.58D-07

 Cycle  11  Pass 1  IDiag  3:
 E= 0.440101559995867E-01 Delta-E=        0.000000000000 Rises=F Damp=F
 DIIS: error= 8.20D-09 at cycle  11 NSaved=  11.
 NSaved=11 IEnMin=11 EnMin= 0.440101559995867E-01 IErMin=11 ErrMin= 8.20D-09
 ErrMax= 8.20D-09  0.00D+00 EMaxC= 1.00D-01 BMatC= 2.87D-15 BMatP= 3.44D-14
 IDIUse=1 WtCom= 1.00D+00 WtEn= 0.00D+00
 Coeff-Com:  0.193D-04-0.675D-04 0.178D-03-0.850D-03 0.368D-02-0.105D-01
 Coeff-Com:  0.240D-01-0.571D-01 0.143D+00-0.519D+00 0.142D+01
 Coeff:      0.193D-04-0.675D-04 0.178D-03-0.850D-03 0.368D-02-0.105D-01
 Coeff:      0.240D-01-0.571D-01 0.143D+00-0.519D+00 0.142D+01
 Gap=     0.348 Goal=   None    Shift=    0.000
 RMSDP=1.41D-08 MaxDP=8.77D-08 DE=-2.84D-13 OVMax= 1.99D-07

 Cycle  12  Pass 1  IDiag  3:
 E= 0.440101559996862E-01 Delta-E=        0.000000000000 Rises=F Damp=F
 DIIS: error= 2.64D-09 at cycle  12 NSaved=  12.
 NSaved=12 IEnMin=11 EnMin= 0.440101559995867E-01 IErMin=12 ErrMin= 2.64D-09
 ErrMax= 2.64D-09  0.00D+00 EMaxC= 1.00D-01 BMatC= 3.00D-16 BMatP= 2.87D-15
 IDIUse=1 WtCom= 1.00D+00 WtEn= 0.00D+00
 Coeff-Com:  0.189D-05-0.761D-05 0.296D-04-0.226D-03 0.114D-02-0.336D-02
 Coeff-Com:  0.752D-02-0.153D-01 0.181D-01 0.762D-01-0.626D+00 0.154D+01
 Coeff:      0.189D-05-0.761D-05 0.296D-04-0.226D-03 0.114D-02-0.336D-02
 Coeff:      0.752D-02-0.153D-01 0.181D-01 0.762D-01-0.626D+00 0.154D+01
 Gap=     0.348 Goal=   None    Shift=    0.000
 RMSDP=4.78D-09 MaxDP=3.41D-08 DE= 9.95D-14 OVMax= 6.81D-08

 Cycle  13  Pass 2  IDiag  1:
 SCF Done:  E(RAM1) =  0.440101559997E-01 A.U. after   13 cycles
            NFock= 12  Conv=0.48D-08     -V/T= 1.0030
 KE=-1.454698691488D+01 PE=-1.557125837431D+02 EE= 7.657771487655D+01
 Leave Link  502 at Wed Mar 23 16:12:34 2016, MaxMem=    33554432 cpu:         0.0
 (Enter /opt/g09/g09/l701.exe)
 Compute integral first derivatives.
 ... and contract with generalized density number  0.
 Leave Link  701 at Wed Mar 23 16:12:34 2016, MaxMem=    33554432 cpu:         0.0
 (Enter /opt/g09/g09/l702.exe)
 L702 exits ... SP integral derivatives will be done elsewhere.
 Leave Link  702 at Wed Mar 23 16:12:34 2016, MaxMem=    33554432 cpu:         0.0
 (Enter /opt/g09/g09/l703.exe)
 Compute integral first derivatives, UseDBF=F ICtDFT=           0.
 Integral derivatives from FoFJK, PRISM(SPDF).
 Calling FoFJK, ICntrl=      2127 FMM=F ISym2X=0 I1Cent= 0 IOpClX= 0 NMat=1 NMatS=1 NMatT=0.
 FoFJK:  IHMeth= 8 ICntrl=    2127 DoSepK=F KAlg= 0 I1Cent=   0 FoldK=F
 IRaf=         0 NMat=   1 IRICut=       1 DoRegI=T DoRafI=F ISym2E= 0.
 FoFCou: FMM=F IPFlag=           0 FMFlag=      100000 FMFlg1=         800
         NFxFlg=           0 DoJE=F BraDBF=F KetDBF=F FulRan=T
         wScrn=  0.000000 ICntrl=    2127 IOpCl=  0 I1Cent=           0 NGrid=           0
         NMat0=    1 NMatS0=      1 NMatT0=    0 NMatD0=    1 NMtDS0=    0 NMtDT0=    0
 Symmetry not used in FoFCou.
 Leave Link  703 at Wed Mar 23 16:12:34 2016, MaxMem=    33554432 cpu:         0.0
 (Enter /opt/g09/g09/l716.exe)
 Dipole        = 1.20327029D-01-2.94251939D-03-1.37116023D-03
 ***** Axes restored to original set *****
 -------------------------------------------------------------------
 Center     Atomic                   Forces (Hartrees/Bohr)
 Number     Number              X              Y              Z
 -------------------------------------------------------------------
      1        6           0.004650833   -0.006309063   -0.004405038
      2        6          -0.004068613    0.002786726    0.003582185
      3        6          -0.006144206    0.003121835    0.002678615
      4        6           0.006369024    0.001229926   -0.001672877
      5        1          -0.000677988    0.000171936   -0.000095043
      6        1          -0.000850924    0.001616034   -0.000010466
      7        1           0.001938501   -0.000417813   -0.001386993
      8        1          -0.001469031   -0.000857483    0.002681390
      9       16           0.000252403   -0.001342097   -0.001371773
 -------------------------------------------------------------------
 Cartesian Forces:  Max     0.006369024 RMS     0.002987989
 Leave Link  716 at Wed Mar 23 16:12:34 2016, MaxMem=    33554432 cpu:         0.0
 (Enter /opt/g09/g09/l103.exe)

 GradGradGradGradGradGradGradGradGradGradGradGradGradGradGradGradGradGrad
 Berny optimization.
 Using GEDIIS/GDIIS optimizer.
 FormGI is forming the generalized inverse of G from B-inverse, IUseBI=4.
 Internal  Forces:  Max     0.007748158 RMS     0.001885154
 Search for a local minimum.
 Step number   3 out of a maximum of   48
 All quantities printed in internal units (Hartrees-Bohrs-Radians)
 RMS Force = .18852D-02 SwitMx=.10000D-02 MixMth= 1
 Mixed Optimization -- RFO/linear search
 Update second derivatives using D2CorX and points    2    3
 DE= -3.27D-03 DEPred=-3.50D-03 R= 9.35D-01
[...]
                                                                                       X    X                                        
                                                                                       X                                             
                                                                                       X                                             
                                                                                       X                                             
                                                                                       X                                             
                                                                                       X                                             
                                                                                       X                                             
                                                                                       X                                             
                                                                                       X                                             
                                                                                       X                                             
 
 ***** Axes restored to original set *****
 -------------------------------------------------------------------
 Center     Atomic                   Forces (Hartrees/Bohr)
 Number     Number              X              Y              Z
 -------------------------------------------------------------------
      1        6           0.022847020    0.098097992   -0.026550033
      2        6          -0.056825638   -0.018584199    0.007727475
      3        6          -0.125426494    0.040239971   -0.012310461
      4        6           0.024414420   -0.150322832    0.017212609
      5        1           0.049759782    0.026559443   -0.001918298
      6        1          -0.007976730   -0.001994377    0.002525137
      7        1           0.000417501    0.005841214   -0.004901210
      8        1           0.027609588   -0.015147672    0.004188256
      9       16           0.065180552    0.015310460    0.014026525
 -------------------------------------------------------------------
 Cartesian Forces:  Max     0.150322832 RMS     0.048869670
 Z-matrix is all fixed cartesians, so copy forces.
 Force constants in Cartesian coordinates: 
                1             2             3             4             5 
      1  0.720125D+00
      2 -0.296180D+00  0.280142D+00
      3 -0.177145D-01  0.180592D-01  0.123829D+00
      4 -0.868954D-01  0.330986D+00 -0.191356D-01 -0.161006D+00
      5 -0.210732D+00 -0.148257D+00  0.513532D-02  0.336795D+00  0.531359D+00
      6 -0.180270D-01 -0.221952D-01 -0.477019D-01  0.160295D-01 -0.565389D-01
      7 -0.210286D+00 -0.138609D+00  0.123528D-01  0.351461D+00 -0.131902D-01
      8  0.358275D-01 -0.970591D-01  0.297173D-03  0.911586D-01 -0.943525D-01
      9  0.227743D-01  0.178971D-01  0.102058D-01 -0.225619D-01 -0.862551D-02
     10 -0.731581D-01 -0.198040D-01 -0.449592D-02 -0.154474D-01 -0.682984D-01
     11  0.507357D-01 -0.184545D+00  0.549153D-02 -0.122951D+00 -0.389455D-01
     12 -0.238062D-01 -0.161148D-01 -0.835918D-01  0.336889D-01  0.252192D-02
     13  0.727864D-02  0.439730D-03 -0.595346D-03 -0.628862D-02 -0.618833D-03
     14 -0.133454D-01 -0.129533D-01 -0.322934D-02 -0.178479D-01 -0.320970D-02
     15 -0.317819D-02  0.390725D-04  0.637885D-02  0.450594D-02  0.686817D-04
     16 -0.476962D-02 -0.101089D-02  0.145363D-03  0.226863D-02 -0.591816D-03
     17  0.136755D-02  0.644159D-03 -0.169412D-02 -0.136121D-02  0.898470D-03
     18 -0.101219D-01 -0.140015D-01  0.373753D-02  0.194123D-01 -0.210156D-02
     19 -0.104540D-01 -0.291040D-01  0.451631D-02 -0.481556D-01 -0.551627D-01
     20 -0.250525D-02 -0.557899D-02  0.433776D-02 -0.840125D-01 -0.289832D+00
     21  0.105621D-01  0.181733D-01  0.965530D-02 -0.621684D-02  0.576898D-01
     22 -0.289431D+00  0.156641D+00  0.270289D-01 -0.277360D-01  0.115651D-01
     23  0.174503D+00 -0.122824D+00 -0.162507D-01 -0.255762D-01  0.974253D-02
     24  0.346300D-01 -0.114214D-01 -0.295147D-01 -0.807060D-02 -0.204828D-02
     25 -0.524092D-01 -0.335868D-02 -0.210196D-02 -0.820219D-02  0.233473D-03
     26  0.260329D+00  0.290431D+00 -0.121467D-01 -0.507191D+00  0.325964D-01
     27  0.488254D-02  0.956547D-02  0.700175D-02 -0.176545D-01  0.389920D-02
                6             7             8             9            10 
      6  0.112088D+00
      7 -0.149232D-01  0.519080D+00
      8 -0.244545D-02 -0.268689D+00  0.554012D+00
      9  0.131779D-01 -0.624246D-01  0.720190D-01  0.111068D+00
     10  0.396739D-02 -0.534817D+00  0.193682D+00  0.708935D-01  0.101999D+01
     11  0.652943D-02  0.151427D+00 -0.918511D-01 -0.291017D-01  0.624086D-01
     12  0.767691D-03  0.472771D-01 -0.253950D-01 -0.440253D-01 -0.209404D-01
     13  0.199849D-03 -0.413733D-01 -0.147426D-01 -0.176467D-02 -0.299306D+00
     14  0.976981D-03  0.149852D-01  0.103967D-01 -0.134692D-02 -0.199345D+00
     15  0.389212D-02  0.302451D-02 -0.934804D-03  0.113650D-01 -0.480210D-01
     16 -0.289611D-03 -0.360858D-01  0.349529D-01  0.705237D-02 -0.146057D-01
     17 -0.455217D-03  0.436982D-01 -0.302745D+00 -0.406535D-01  0.144361D-01
     18 -0.542237D-03 -0.288459D-02 -0.416267D-01 -0.500955D-01  0.157717D-02
     19  0.144668D-01  0.401004D-02 -0.146278D-02 -0.451813D-03 -0.433911D-02
     20  0.523290D-01  0.754554D-02  0.442920D-02 -0.432263D-03 -0.141746D-02
     21 -0.506413D-01  0.663275D-02  0.896116D-03 -0.277427D-02  0.911487D-03
     22  0.609160D-03 -0.885360D-02  0.181462D-03  0.187553D-02  0.283212D-02
     23  0.358155D-03  0.889804D-02 -0.121192D-02  0.197268D-04  0.229985D-01
     24  0.943891D-02  0.200196D-02  0.302778D-03  0.264178D-02 -0.177413D-03
     25 -0.203287D-02 -0.431339D-01 -0.709079D-01 -0.153930D-01 -0.811440D-01
     26  0.214413D-01  0.193934D+00  0.183814D-01 -0.977599D-02 -0.466071D-02
     27 -0.404791D-01  0.894441D-02 -0.311271D-02 -0.515633D-01 -0.371486D-02
               11            12            13            14            15 
     11  0.556514D+00
     12  0.581331D-01  0.117231D+00
     13 -0.198746D+00 -0.402131D-01  0.341651D+00
     14 -0.156354D+00 -0.277924D-01  0.213561D+00  0.173466D+00
     15 -0.340237D-01 -0.243142D-01  0.421887D-01  0.315449D-01  0.256538D-02
     16  0.353729D-01  0.700259D-02 -0.452800D-03  0.597611D-03 -0.464650D-04
     17 -0.189611D-01 -0.596464D-02  0.343454D-03  0.287592D-03  0.416056D-03
     18 -0.538573D-02  0.125088D-01  0.394906D-03  0.679492D-03 -0.124566D-02
     19  0.743458D-04 -0.616494D-03 -0.933735D-04 -0.604119D-03  0.340707D-03
     20 -0.160460D-02  0.222989D-02  0.761429D-04 -0.631205D-03 -0.243957D-03
     21 -0.499674D-02  0.688104D-02  0.715271D-05 -0.522339D-05 -0.147064D-02
     22  0.548831D-02 -0.865800D-03  0.477454D-03  0.380606D-03 -0.283640D-03
     23 -0.266987D-01  0.294979D-03 -0.776232D-04 -0.687465D-03  0.243869D-03
     24 -0.304104D-04  0.632306D-02 -0.194788D-03 -0.330042D-04 -0.166539D-05
     25  0.161894D-01 -0.152644D-02 -0.189284D-02  0.161754D-02  0.146952D-02
     26 -0.375541D-01  0.120867D-01 -0.235742D-03 -0.103149D-01  0.288989D-02
     27  0.338431D-02  0.822001D-02 -0.227278D-04 -0.794558D-03  0.283084D-02
               16            17            18            19            20 
     16  0.563216D-01
     17 -0.551358D-01  0.336410D+00
     18 -0.110201D-01  0.517674D-01  0.275521D-01
     19  0.676797D-04  0.517340D-04  0.615848D-03  0.619067D-01
     20  0.239058D-04 -0.145266D-03  0.375179D-05  0.758957D-01  0.319180D+00
     21  0.381538D-03  0.616162D-03  0.199142D-05 -0.155260D-01 -0.612643D-01
     22  0.511299D-04 -0.101337D-03 -0.350501D-03  0.445545D-03  0.639194D-04
     23  0.476948D-03 -0.368735D-03 -0.101618D-03 -0.184100D-03 -0.511247D-04
     24 -0.125892D-03  0.335766D-03 -0.801266D-03 -0.317053D-03 -0.582385D-03
     25 -0.279515D-02 -0.329864D-02  0.237679D-02 -0.338805D-02  0.432984D-02
     26 -0.146857D-01 -0.160202D-01  0.107665D-01  0.104959D-01 -0.257661D-01
     27 -0.309989D-02 -0.436779D-02  0.888418D-02 -0.302834D-02  0.362221D-02
               21            22            23            24            25 
     21  0.318856D-01
     22  0.630927D-03  0.320550D+00
     23 -0.305615D-03 -0.180270D+00  0.154066D+00
     24 -0.156617D-02 -0.286721D-01  0.164738D-01  0.988515D-02
     25  0.261685D-02  0.166379D-02 -0.768232D-03  0.925766D-03  0.191301D+00
     26 -0.108036D-01  0.605083D-02 -0.119669D-01 -0.299679D-02  0.559629D-01
     27  0.802813D-02  0.275726D-04 -0.732678D-03  0.359475D-02  0.136658D-01
               26            27 
     26 -0.239787D+00
     27 -0.114634D-01  0.534828D-01
 Leave Link  716 at Wed Mar 23 16:12:35 2016, MaxMem=    33554432 cpu:         0.0
 (Enter /opt/g09/g09/l103.exe)

 GradGradGradGradGradGradGradGradGradGradGradGradGradGradGradGradGradGrad
 Berny optimization.
 Search for a local minimum.
 Step number   1 out of a maximum of    2
 All quantities printed in internal units (Hartrees-Bohrs-Radians)
 Second derivative matrix not updated -- analytic derivatives used.
 ITU=  0
     Eigenvalues ---   -1.12952  -0.00366   0.00715   0.02276   0.02995
     Eigenvalues ---    0.04298   0.04887   0.07464   0.11412   0.12509
     Eigenvalues ---    0.15703   0.17683   0.20963   0.24133   0.38308
     Eigenvalues ---    0.41934   0.67052   0.82827   0.96521   1.22793
     Eigenvalues ---    1.60082
 Eigenvalue     1 is  -1.13D+00 should be greater than     0.000000 Eigenvector:
                          X2        Y9        Y1        X3        Y2
   1                    0.61760   0.53674  -0.35427  -0.31098  -0.21779
                          X1        Y3        X4        X9        Y4
   1                   -0.15863  -0.12638  -0.08712  -0.04800   0.03791
 Eigenvalue     2 is  -3.66D-03 should be greater than     0.000000 Eigenvector:
                          Z5        Z8        Z7        Z6        Z3
   1                    0.73710  -0.50862   0.27920  -0.24279  -0.15287
                          Z1        Z2        Y5        Y7        Z9
   1                   -0.12639   0.10865  -0.06747   0.03417   0.03268
 Quadratic step=2.021D+00 exceeds max=3.000D-01 adjusted using Lamda=-2.270D-01.
 Angle between NR and scaled steps=  65.63 degrees.
 Angle between quadratic step and forces=  26.53 degrees.
 Linear search not attempted -- first point.
 TrRot=  0.001605  0.001382  0.003825 -0.459894  0.000786  0.458997
 Variable       Old X    -DE/DX   Delta X   Delta X   Delta X     New X
                                 (Linear)    (Quad)   (Total)
    X1        1.66282   0.02285   0.00000   0.02439   0.02480   1.68763
    Y1       -1.38287   0.09810   0.00000   0.08750   0.08739  -1.29549
    Z1        0.01696  -0.02655   0.00000  -0.05432  -0.05213  -0.03517
    X2       -0.72640  -0.05683   0.00000  -0.05914  -0.05964  -0.78604
    Y2       -2.34832  -0.01858   0.00000  -0.00075   0.00134  -2.34698
    Z2       -0.01336   0.00773   0.00000   0.01155   0.01511   0.00176
    X3       -0.67037  -0.12543   0.00000  -0.12818  -0.12443  -0.79480
    Y3        2.27191   0.04024   0.00000   0.02508   0.02714   2.29905
    Z3        0.17436  -0.01231   0.00000  -0.05726  -0.05207   0.12229
    X4        1.70130   0.02441   0.00000  -0.01757  -0.01486   1.68644
    Y4        1.43490  -0.15032   0.00000  -0.15349  -0.15360   1.28130
    Z4       -0.14280   0.01721   0.00000   0.07945   0.08254  -0.06027
    X5        3.27398   0.04976   0.00000   0.01850   0.02244   3.29642
    Y5        2.53837   0.02656   0.00000   0.00229   0.00070   2.53906
    Z5        0.10199  -0.00192   0.00000  -0.02708  -0.02469   0.07729
    X6       -0.97114  -0.00798   0.00000  -0.02735  -0.02154  -0.99268
    Y6        4.30293  -0.00199   0.00000   0.01027   0.01237   4.31530
    Z6        0.49358   0.00253   0.00000  -0.00819  -0.00216   0.49142
    X7       -1.20168   0.00042   0.00000   0.00452   0.00252  -1.19916
    Y7       -4.32447   0.00584   0.00000  -0.00065   0.00167  -4.32280
    Z7        0.41756  -0.00490   0.00000  -0.02371  -0.02055   0.39701
    X8        3.32446   0.02761   0.00000   0.03503   0.03430   3.35876
    Y8       -2.46088  -0.01515   0.00000  -0.01457  -0.01614  -2.47702
    Z8       -0.16387   0.00419   0.00000   0.01113   0.01173  -0.15215
    X9       -3.01939   0.06518   0.00000   0.13485   0.13641  -2.88299
    Y9        0.07710   0.01531   0.00000   0.03510   0.03914   0.11624
    Z9       -0.24661   0.01403   0.00000   0.03633   0.04223  -0.20439
         Item               Value     Threshold  Converged?
 Maximum Force            0.150323     0.000450     NO 
 RMS     Force            0.048870     0.000300     NO 
 Maximum Displacement     0.153601     0.001800     NO 
 RMS     Displacement     0.057728     0.001200     NO 
 Predicted change in Energy=-4.535413D-02
 GradGradGradGradGradGradGradGradGradGradGradGradGradGradGradGradGradGrad

 Leave Link  103 at Wed Mar 23 16:12:35 2016, MaxMem=    33554432 cpu:         0.0
 (Enter /opt/g09/g09/l9999.exe)
 1\1\GINC-LINUX-CBNE\Freq\RAM1-Full\STO-3G\C4H4S1\DUSTIN\23-Mar-2016\0\
 \#P AM1(Input,Print) CIS(Singlets,NStates=0) pop(full) freq\\best1\\0,
 1\C,0.879928,-0.731785,0.008975\C,-0.384394,-1.242676,-0.007068\C,-0.3
 54746,1.202243,0.092266\C,0.900287,0.759315,-0.075569\H,1.732516,1.343
 246,0.053969\H,-0.513905,2.277013,0.261193\H,-0.635902,-2.288411,0.220
 962\H,1.75923,-1.302242,-0.086717\S,-1.597795,0.040802,-0.130502\\Vers
 ion=ES64L-G09RevD.01\State=1-A\HF=0.0688137\RMSD=2.442e-09\RMSF=4.887e
 -02\ZeroPoint=0.0611421\Thermal=0.0657807\Dipole=0.6644222,0.0918432,0
 .2429038\DipoleDeriv=1.3759889,-2.4302308,0.473472,1.7278151,-2.784971
 4,0.5155252,-0.1529982,0.166131,-0.3149215,-3.1201704,4.5186311,-0.855
 8505,0.1266201,-0.3099702,-0.0128201,0.2233409,-0.2240128,0.0193662,2.
 4672594,-2.3188552,0.5546193,0.7611609,-0.5531219,0.1486232,-0.1661524
 ,0.087261,-0.0870308,-0.4741233,0.2861948,0.0181743,0.1981766,0.011911
 1,0.0500707,0.30299,-0.1781958,-0.1344311,0.1603816,0.1216763,-0.00246
 01,-0.0008878,0.2057438,-0.0293881,0.0098351,-0.1163577,0.1835179,0.05
 34794,-0.0800232,-0.0049984,0.0184071,0.1846221,-0.0102367,0.0676574,-
 0.0723329,0.2200364,0.0381351,0.1227728,-0.0267414,-0.0708277,0.276155
 3,-0.011023,-0.1458297,0.0607434,0.1543749,0.2478449,-0.1512114,0.0257
 818,-0.148967,0.1853021,-0.0145591,-0.039174,0.1042494,0.1872172,-0.74
 88044,-0.0689436,-0.1819989,-2.6114989,2.7843347,-0.6361941,-0.0996825
 ,0.1725288,-0.228129\Polar=95.2817003,-18.7190003,90.7481256,5.1156258
 ,-5.3642645,14.9540918\PG=C01 [X(C4H4S1)]\NImag=2\\0.72012544,-0.29617
 993,0.28014242,-0.01771449,0.01805916,0.12382902,-0.08689542,0.3309858
 8,-0.01913560,-0.16100564,-0.21073175,-0.14825723,0.00513532,0.3367952
 4,0.53135938,-0.01802700,-0.02219517,-0.04770188,0.01602949,-0.0565389
 1,0.11208819,-0.21028650,-0.13860861,0.01235283,0.35146122,-0.01319017
 ,-0.01492319,0.51908007,0.03582753,-0.09705911,0.00029717,0.09115856,-
 0.09435251,-0.00244545,-0.26868895,0.55401208,0.02277431,0.01789710,0.
 01020575,-0.02256185,-0.00862551,0.01317786,-0.06242463,0.07201902,0.1
 1106777,-0.07315808,-0.01980404,-0.00449592,-0.01544743,-0.06829841,0.
 00396739,-0.53481719,0.19368209,0.07089346,1.01998539,0.05073566,-0.18
 454545,0.00549153,-0.12295080,-0.03894551,0.00652943,0.15142744,-0.091
 85107,-0.02910170,0.06240856,0.55651450,-0.02380619,-0.01611475,-0.083
 59178,0.03368890,0.00252192,0.00076769,0.04727712,-0.02539501,-0.04402
 529,-0.02094036,0.05813310,0.11723100,0.00727864,0.00043973,-0.0005953
 5,-0.00628862,-0.00061883,0.00019985,-0.04137327,-0.01474257,-0.001764
 67,-0.29930644,-0.19874587,-0.04021315,0.34165125,-0.01334539,-0.01295
 334,-0.00322934,-0.01784787,-0.00320970,0.00097698,0.01498516,0.010396
 74,-0.00134692,-0.19934492,-0.15635392,-0.02779240,0.21356130,0.173465
 95,-0.00317819,0.00003907,0.00637885,0.00450594,0.00006868,0.00389212,
 0.00302451,-0.00093480,0.01136504,-0.04802102,-0.03402368,-0.02431421,
 0.04218871,0.03154489,0.00256538,-0.00476962,-0.00101089,0.00014536,0.
 00226863,-0.00059182,-0.00028961,-0.03608583,0.03495294,0.00705237,-0.
 01460567,0.03537288,0.00700259,-0.00045280,0.00059761,-0.00004647,0.05
 632159,0.00136755,0.00064416,-0.00169412,-0.00136121,0.00089847,-0.000
 45522,0.04369819,-0.30274515,-0.04065353,0.01443611,-0.01896109,-0.005
 96464,0.00034345,0.00028759,0.00041606,-0.05513585,0.33641026,-0.01012
 186,-0.01400152,0.00373753,0.01941234,-0.00210156,-0.00054224,-0.00288
 459,-0.04162673,-0.05009547,0.00157717,-0.00538573,0.01250879,0.000394
 91,0.00067949,-0.00124566,-0.01102005,0.05176742,0.02755207,-0.0104540
 2,-0.02910401,0.00451631,-0.04815556,-0.05516272,0.01446681,0.00401004
 ,-0.00146278,-0.00045181,-0.00433911,0.00007435,-0.00061649,-0.0000933
 7,-0.00060412,0.00034071,0.00006768,0.00005173,0.00061585,0.06190673,-
 0.00250525,-0.00557899,0.00433776,-0.08401249,-0.28983210,0.05232902,0
 .00754554,0.00442920,-0.00043226,-0.00141746,-0.00160460,0.00222989,0.
 00007614,-0.00063121,-0.00024396,0.00002391,-0.00014527,0.00000375,0.0
 7589573,0.31918026,0.01056207,0.01817331,0.00965530,-0.00621684,0.0576
 8985,-0.05064127,0.00663275,0.00089612,-0.00277427,0.00091149,-0.00499
 674,0.00688104,0.00000715,-0.00000522,-0.00147064,0.00038154,0.0006161
 6,0.00000199,-0.01552601,-0.06126428,0.03188565,-0.28943063,0.15664147
 ,0.02702894,-0.02773602,0.01156510,0.00060916,-0.00885360,0.00018146,0
 .00187553,0.00283212,0.00548831,-0.00086580,0.00047745,0.00038061,-0.0
 0028364,0.00005113,-0.00010134,-0.00035050,0.00044554,0.00006392,0.000
 63093,0.32055024,0.17450298,-0.12282362,-0.01625073,-0.02557620,0.0097
 4253,0.00035816,0.00889804,-0.00121192,0.00001973,0.02299853,-0.026698
 66,0.00029498,-0.00007762,-0.00068747,0.00024387,0.00047695,-0.0003687
 4,-0.00010162,-0.00018410,-0.00005112,-0.00030561,-0.18027039,0.154065
 84,0.03462999,-0.01142143,-0.02951468,-0.00807060,-0.00204828,0.009438
 91,0.00200196,0.00030278,0.00264178,-0.00017741,-0.00003041,0.00632306
 ,-0.00019479,-0.00003300,-0.00000167,-0.00012589,0.00033577,-0.0008012
 7,-0.00031705,-0.00058239,-0.00156617,-0.02867208,0.01647382,0.0098851
 5,-0.05240921,-0.00335868,-0.00210196,-0.00820219,0.00023347,-0.002032
 87,-0.04313386,-0.07090792,-0.01539300,-0.08114399,0.01618939,-0.00152
 644,-0.00189284,0.00161754,0.00146952,-0.00279515,-0.00329864,0.002376
 79,-0.00338805,0.00432984,0.00261685,0.00166379,-0.00076823,0.00092577
 ,0.19130139,0.26032899,0.29043146,-0.01214668,-0.50719120,0.03259638,0
 .02144126,0.19393373,0.01838137,-0.00977599,-0.00466071,-0.03755408,0.
 01208669,-0.00023574,-0.01031486,0.00288989,-0.01468570,-0.01602019,0.
 01076654,0.01049586,-0.02576615,-0.01080363,0.00605083,-0.01196690,-0.
 00299679,0.05596287,-0.23978655,0.00488254,0.00956547,0.00700175,-0.01
 765449,0.00389920,-0.04047906,0.00894441,-0.00311271,-0.05156335,-0.00
 371486,0.00338431,0.00822001,-0.00002273,-0.00079456,0.00283084,-0.003
 09989,-0.00436779,0.00888418,-0.00302834,0.00362221,0.00802813,0.00002
 757,-0.00073268,0.00359475,0.01366585,-0.01146342,0.05348279\\-0.02284
 702,-0.09809799,0.02655003,0.05682564,0.01858420,-0.00772747,0.1254264
 9,-0.04023997,0.01231046,-0.02441442,0.15032283,-0.01721261,-0.0497597
 8,-0.02655944,0.00191830,0.00797673,0.00199438,-0.00252514,-0.00041750
 ,-0.00584121,0.00490121,-0.02760959,0.01514767,-0.00418826,-0.06518055
 ,-0.01531046,-0.01402653\\\@


 Sacred cows make the best hamburger.
                               -- Mark Twain
 Job cpu time:       0 days  0 hours  0 minutes  0.4 seconds.
 File lengths (MBytes):  RWF=      6 Int=      0 D2E=      0 Chk=      2 Scr=      1
 Normal termination of Gaussian 09 at Wed Mar 23 16:12:35 2016.
