 Entering Gaussian System, Link 0=g09
 Input=best.com
 Output=best.log
 Initial command:
 /opt/g09/g09/l1.exe "/opt/g09/scratch/Gau-16367.inp" -scrdir="/opt/g09/scratch/"
 Entering Link 1 = /opt/g09/g09/l1.exe PID=     16368.
  
 Copyright (c) 1988,1990,1992,1993,1995,1998,2003,2009,2013,
            Gaussian, Inc.  All Rights Reserved.
  
 This is part of the Gaussian(R) 09 program.  It is based on
 the Gaussian(R) 03 system (copyright 2003, Gaussian, Inc.),
 the Gaussian(R) 98 system (copyright 1998, Gaussian, Inc.),
 the Gaussian(R) 94 system (copyright 1995, Gaussian, Inc.),
 the Gaussian 92(TM) system (copyright 1992, Gaussian, Inc.),
 the Gaussian 90(TM) system (copyright 1990, Gaussian, Inc.),
 the Gaussian 88(TM) system (copyright 1988, Gaussian, Inc.),
 the Gaussian 86(TM) system (copyright 1986, Carnegie Mellon
 University), and the Gaussian 82(TM) system (copyright 1983,
 Carnegie Mellon University). Gaussian is a federally registered
 trademark of Gaussian, Inc.
  
 This software contains proprietary and confidential information,
 including trade secrets, belonging to Gaussian, Inc.
  
 This software is provided under written license and may be
 used, copied, transmitted, or stored only in accord with that
 written license.
  
 The following legend is applicable only to US Government
 contracts under FAR:
  
                    RESTRICTED RIGHTS LEGEND
  
 Use, reproduction and disclosure by the US Government is
 subject to restrictions as set forth in subparagraphs (a)
 and (c) of the Commercial Computer Software - Restricted
 Rights clause in FAR 52.227-19.
  
 Gaussian, Inc.
 340 Quinnipiac St., Bldg. 40, Wallingford CT 06492
  
  
 ---------------------------------------------------------------
 Warning -- This program may not be used in any manner that
 competes with the business of Gaussian, Inc. or will provide
 assistance to any competitor of Gaussian, Inc.  The licensee
 of this program is prohibited from giving any competitor of
 Gaussian, Inc. access to this program.  By using this program,
 the user acknowledges that Gaussian, Inc. is engaged in the
 business of creating and licensing software in the field of
 computational chemistry and represents and warrants to the
 licensee that it is not a competitor of Gaussian, Inc. and that
 it will not use this program in any manner prohibited above.
 ---------------------------------------------------------------
  

 Cite this work as:
 Gaussian 09, Revision D.01,
 M. J. Frisch, G. W. Trucks, H. B. Schlegel, G. E. Scuseria, 
 M. A. Robb, J. R. Cheeseman, G. Scalmani, V. Barone, B. Mennucci, 
 G. A. Petersson, H. Nakatsuji, M. Caricato, X. Li, H. P. Hratchian, 
 A. F. Izmaylov, J. Bloino, G. Zheng, J. L. Sonnenberg, M. Hada, 
 M. Ehara, K. Toyota, R. Fukuda, J. Hasegawa, M. Ishida, T. Nakajima, 
 Y. Honda, O. Kitao, H. Nakai, T. Vreven, J. A. Montgomery, Jr., 
 J. E. Peralta, F. Ogliaro, M. Bearpark, J. J. Heyd, E. Brothers, 
 K. N. Kudin, V. N. Staroverov, T. Keith, R. Kobayashi, J. Normand, 
 K. Raghavachari, A. Rendell, J. C. Burant, S. S. Iyengar, J. Tomasi, 
 M. Cossi, N. Rega, J. M. Millam, M. Klene, J. E. Knox, J. B. Cross, 
 V. Bakken, C. Adamo, J. Jaramillo, R. Gomperts, R. E. Stratmann, 
 O. Yazyev, A. J. Austin, R. Cammi, C. Pomelli, J. W. Ochterski, 
 R. L. Martin, K. Morokuma, V. G. Zakrzewski, G. A. Voth, 
 P. Salvador, J. J. Dannenberg, S. Dapprich, A. D. Daniels, 
 O. Farkas, J. B. Foresman, J. V. Ortiz, J. Cioslowski, 
 and D. J. Fox, Gaussian, Inc., Wallingford CT, 2013.
 
 ******************************************
 Gaussian 09:  ES64L-G09RevD.01 24-Apr-2013
                12-Mar-2016 
 ******************************************
 -----------------------
 #P AM1(Input,Print) opt
 -----------------------
 1/14=-1,18=20,19=15,26=1,38=1/1,3;
 2/9=110,12=2,17=6,18=5,40=1/2;
 3/5=2,16=1,25=1,41=700000,71=1,135=100,136=1/1,2,3;
 4/35=1/1;
 5/5=2,35=1,38=5/2;
 6/7=2,8=2,9=2,10=2,28=1/1;
 7//1,2,3,16;
 1/14=-1,18=20,19=15,26=1/3(2);
 2/9=110/2;
 99//99;
 2/9=110/2;
 3/5=2,16=1,25=1,41=700000,71=1,135=20,136=1/1,2,3;
 4/5=5,16=3,35=1/1;
 5/5=2,35=1,38=5/2;
 7//1,2,3,16;
 1/14=-1,18=20,19=15,26=1/3(-5);
 2/9=110/2;
 6/7=2,8=2,9=2,10=2,19=2,28=1/1;
 99/9=1/99;
 Leave Link    1 at Sat Mar 12 18:38:37 2016, MaxMem=           0 cpu:         0.0
 (Enter /opt/g09/g09/l101.exe)
 --
 hi
 --
 Symbolic Z-matrix:
 Charge =  0 Multiplicity = 1
 6                     0.98253  -0.71186   0.00687 
 6                    -0.34688  -1.09191   0.00212 
 8                    -1.15769   0.00093   0.00053 
 6                    -0.33148   1.12945  -0.00345 
 6                     0.94361   0.74152   0.01121 
 1                     1.81447   1.3672   -0.00504 
 1                    -0.84252   2.04947  -0.00752 
 1                    -0.83784  -2.04535   0.01065 
 1                     1.82707  -1.35204  -0.00403 
 
 NAtoms=      9 NQM=        9 NQMF=       0 NMMI=      0 NMMIF=      0
                NMic=       0 NMicF=      0.
                    Isotopes and Nuclear Properties:
 (Nuclear quadrupole moments (NQMom) in fm**2, nuclear magnetic moments (NMagM)
  in nuclear magnetons)

  Atom         1           2           3           4           5           6           7           8           9
 IAtWgt=          12          12          16          12          12           1           1           1           1
 AtmWgt=  12.0000000  12.0000000  15.9949146  12.0000000  12.0000000   1.0078250   1.0078250   1.0078250   1.0078250
 NucSpn=           0           0           0           0           0           1           1           1           1
 AtZEff=   0.0000000   0.0000000   0.0000000   0.0000000   0.0000000   0.0000000   0.0000000   0.0000000   0.0000000
 NQMom=    0.0000000   0.0000000   0.0000000   0.0000000   0.0000000   0.0000000   0.0000000   0.0000000   0.0000000
 NMagM=    0.0000000   0.0000000   0.0000000   0.0000000   0.0000000   2.7928460   2.7928460   2.7928460   2.7928460
 AtZNuc=   6.0000000   6.0000000   8.0000000   6.0000000   6.0000000   1.0000000   1.0000000   1.0000000   1.0000000
 Leave Link  101 at Sat Mar 12 18:38:37 2016, MaxMem=    33554432 cpu:         0.0
 (Enter /opt/g09/g09/l103.exe)

 GradGradGradGradGradGradGradGradGradGradGradGradGradGradGradGradGradGrad
 Berny optimization.
 Initialization pass.
                           ----------------------------
                           !    Initial Parameters    !
                           ! (Angstroms and Degrees)  !
 --------------------------                            --------------------------
 ! Name  Definition              Value          Derivative Info.                !
 --------------------------------------------------------------------------------
 ! R1    R(1,2)                  1.3827         estimate D2E/DX2                !
 ! R2    R(1,5)                  1.4539         estimate D2E/DX2                !
 ! R3    R(1,9)                  1.0598         estimate D2E/DX2                !
 ! R4    R(2,3)                  1.3608         estimate D2E/DX2                !
 ! R5    R(2,8)                  1.0725         estimate D2E/DX2                !
 ! R6    R(3,4)                  1.3986         estimate D2E/DX2                !
 ! R7    R(4,5)                  1.3329         estimate D2E/DX2                !
 ! R8    R(4,7)                  1.0524         estimate D2E/DX2                !
 ! R9    R(5,6)                  1.0724         estimate D2E/DX2                !
 ! A1    A(2,1,5)              104.4211         estimate D2E/DX2                !
 ! A2    A(2,1,9)              126.8776         estimate D2E/DX2                !
 ! A3    A(5,1,9)              128.6964         estimate D2E/DX2                !
 ! A4    A(1,2,3)              110.6183         estimate D2E/DX2                !
 ! A5    A(1,2,8)              133.1963         estimate D2E/DX2                !
 ! A6    A(3,2,8)              116.181          estimate D2E/DX2                !
 ! A7    A(2,3,4)              107.2192         estimate D2E/DX2                !
 ! A8    A(3,4,5)              109.2833         estimate D2E/DX2                !
 ! A9    A(3,4,7)              114.7414         estimate D2E/DX2                !
 ! A10   A(5,4,7)              135.972          estimate D2E/DX2                !
 ! A11   A(1,5,4)              108.4525         estimate D2E/DX2                !
 ! A12   A(1,5,6)              124.154          estimate D2E/DX2                !
 ! A13   A(4,5,6)              127.3629         estimate D2E/DX2                !
 ! D1    D(5,1,2,3)              0.1232         estimate D2E/DX2                !
 ! D2    D(5,1,2,8)           -179.0643         estimate D2E/DX2                !
 ! D3    D(9,1,2,3)           -179.118          estimate D2E/DX2                !
 ! D4    D(9,1,2,8)              1.6944         estimate D2E/DX2                !
 ! D5    D(2,1,5,4)             -0.5616         estimate D2E/DX2                !
 ! D6    D(2,1,5,6)           -178.6762         estimate D2E/DX2                !
 ! D7    D(9,1,5,4)            178.6608         estimate D2E/DX2                !
 ! D8    D(9,1,5,6)              0.5462         estimate D2E/DX2                !
 ! D9    D(1,2,3,4)              0.3349         estimate D2E/DX2                !
 ! D10   D(8,2,3,4)            179.6749         estimate D2E/DX2                !
 ! D11   D(2,3,4,5)             -0.7046         estimate D2E/DX2                !
 ! D12   D(2,3,4,7)            179.8507         estimate D2E/DX2                !
 ! D13   D(3,4,5,1)              0.7831         estimate D2E/DX2                !
 ! D14   D(3,4,5,6)            178.82           estimate D2E/DX2                !
 ! D15   D(7,4,5,1)           -179.9424         estimate D2E/DX2                !
 ! D16   D(7,4,5,6)             -1.9055         estimate D2E/DX2                !
 --------------------------------------------------------------------------------
 Trust Radius=3.00D-01 FncErr=1.00D-07 GrdErr=1.00D-07
 Number of steps in this run=     48 maximum allowed number of steps=    100.
 GradGradGradGradGradGradGradGradGradGradGradGradGradGradGradGradGradGrad

 Leave Link  103 at Sat Mar 12 18:38:37 2016, MaxMem=    33554432 cpu:         0.0
 (Enter /opt/g09/g09/l202.exe)
                          Input orientation:                          
 ---------------------------------------------------------------------
 Center     Atomic      Atomic             Coordinates (Angstroms)
 Number     Number       Type             X           Y           Z
 ---------------------------------------------------------------------
      1          6           0        0.982526   -0.711857    0.006872
      2          6           0       -0.346875   -1.091915    0.002121
      3          8           0       -1.157685    0.000929    0.000530
      4          6           0       -0.331480    1.129454   -0.003445
      5          6           0        0.943607    0.741523    0.011206
      6          1           0        1.814468    1.367200   -0.005035
      7          1           0       -0.842518    2.049469   -0.007516
      8          1           0       -0.837841   -2.045350    0.010650
      9          1           0        1.827074   -1.352041   -0.004029
 ---------------------------------------------------------------------
                    Distance matrix (angstroms):
                    1          2          3          4          5
     1  C    0.000000
     2  C    1.382669   0.000000
     3  O    2.255794   1.360780   0.000000
     4  C    2.262111   2.221429   1.398642   0.000000
     5  C    1.453907   2.242080   2.228008   1.332874   0.000000
     6  H    2.239363   3.273943   3.271150   2.159078   1.072443
     7  H    3.309972   3.180259   2.072658   1.052428   2.213892
     8  H    2.256536   1.072455   2.071150   3.214962   3.307600
     9  H    1.059819   2.189465   3.277092   3.288947   2.272390
                    6          7          8          9
     6  H    0.000000
     7  H    2.743186   0.000000
     8  H    4.322093   4.094862   0.000000
     9  H    2.719270   4.324003   2.753664   0.000000
 Stoichiometry    C4H4O
 Framework group  C1[X(C4H4O)]
 Deg. of freedom    21
 Full point group                 C1      NOp   1
 Largest Abelian subgroup         C1      NOp   1
 Largest concise Abelian subgroup C1      NOp   1
                         Standard orientation:                         
 ---------------------------------------------------------------------
 Center     Atomic      Atomic             Coordinates (Angstroms)
 Number     Number       Type             X           Y           Z
 ---------------------------------------------------------------------
      1          6           0       -0.716555    0.982682   -0.000335
      2          6           0       -1.106430   -0.343880    0.001582
      3          8           0       -0.019614   -1.162751   -0.000811
      4          6           0        1.114999   -0.344926    0.003406
      5          6           0        0.736488    0.933029   -0.007245
      6          1           0        1.368618    1.799193    0.010211
      7          1           0        2.031213   -0.862762    0.004572
      8          1           0       -2.063484   -0.827759   -0.006609
      9          1           0       -1.350453    1.831909    0.013868
 ---------------------------------------------------------------------
 Rotational constants (GHZ):      9.2845211      9.2614935      4.6365921
 Leave Link  202 at Sat Mar 12 18:38:37 2016, MaxMem=    33554432 cpu:         0.0
 (Enter /opt/g09/g09/l301.exe)

 Semi-emprical parameters in input format:
 Method=8 CoreType=1 PeptideFC=0.0116743504 RIJScale=0.5291772086
 ****
 H       
 PQN=1 NValence=1 F0ss=0.4734304852 ZetaOverlap=1.1880780000 U=-0.4188110042
 Beta=-0.2268825074 CoreKO=1.0589197790 KON=0,0,0,1.0589197790 KON=1,0,1,1.0589197790
 KON=0,1,1,1.0589197790 KON=2,1,1,1.0589197790 EISol=-0.4188110042 EHeat=0.0830298228
 Alpha=1.5252601686
 GCore=0.0085044258,1.3397923650,2.3233135968
 GCore=0.0003502156,1.4001425905,3.4015070392
 GCore=-0.0012733648,0.5600570362,4.1494785000
 ****
 C       
 PQN=2,2 NValence=4 F0ss=0.4387265549 F0sp=0.4215147623 F0pp=0.3800125214 F2pp=0.1914453648
 G1sp=0.2679025821
 ZetaOverlap=1.8316981652,1.5375392746
 U=-1.9120180828,-1.4673234142
 Beta=-0.5494348306,-0.2836784428 DDN=0,1,0.8236736000 DDN=1,1,0.6945852836
 CoreKO=1.1124284736 KON=0,0,0,1.1539073742 KON=1,0,1,0.8219701441 KON=0,1,1,1.0895697235
 KON=2,1,1,0.7807744378 EISol=-4.4398989268 EHeat=0.2723305520 Alpha=1.4121564773
 DipHyp=1.6472524267
 GCore=0.0007885612,1.4001425905,3.0372100303
 GCore=0.0031892455,1.4001425905,3.5869991260
 GCore=-0.0014581048,1.3831616189,3.8739385724
 GCore=-0.0000875022,1.4001425905,5.0077742521
 ****
 O       
 PQN=2,2 NValence=6 F0ss=0.5539165357 F0sp=0.5315959624 F0pp=0.4958708974 F2pp=0.2381850701
 G1sp=0.4343770262
 ZetaOverlap=3.1080320000,2.5579943270
 U=-3.5951865036,-2.8748871058
 Beta=-1.0757546603,-1.0757546603 DDN=0,1,0.4988896000 DDN=1,1,0.4852322000
 CoreKO=0.8822957477 KON=0,0,0,0.8822957477 KON=1,0,1,0.5019543089 KON=0,1,1,0.8822957477
 KON=2,1,1,0.5515584117 EISol=-11.6164441184 EHeat=0.0949133088 Alpha=2.3630729218
 DipHyp=0.9977217969
 GCore=0.0195117322,1.4001425905,1.6023328031
 GCore=0.0057489399,1.9601996266,2.7307884326
 ****
 
 Standard basis: VSTO-6G (5D, 7F)
 Ernie: Thresh=  0.10000D-02 Tol=  0.10000D-05 Strict=F.
  NNHCO=     0 NNPyr=     0 NCTC=     0               EPep=         0.000000000
    EC=        68.504464504  ECS=         1.766891229   EG=         0.340728080
   EHC=         0.000000000  EAt=       -31.051283842  AtH=         1.516354808
 EPDDG=         0.000000000  ECC=        70.612083813 EAtT=        32.567638650
 There are    24 symmetry adapted cartesian basis functions of A   symmetry.
 There are    24 symmetry adapted basis functions of A   symmetry.
    24 basis functions,   144 primitive gaussians,    24 cartesian basis functions
    13 alpha electrons       13 beta electrons
       nuclear repulsion energy       103.1797224632 Hartrees.
 IExCor=    0 DFT=F Ex=HF Corr=None ExCW=0 ScaHFX=  1.000000
 ScaDFX=  1.000000  1.000000  1.000000  1.000000 ScalE2=  1.000000  1.000000
 IRadAn=      0 IRanWt=     -1 IRanGd=            0 ICorTp=0 IEmpDi=  4
 Integral buffers will be    131072 words long.
 Regular integral format.
 Two-electron integral symmetry is turned off.
 Leave Link  301 at Sat Mar 12 18:38:37 2016, MaxMem=    33554432 cpu:         0.0
 (Enter /opt/g09/g09/l302.exe)
 Do NDO integrals.
 NPDir=0 NMtPBC=     1 NCelOv=     1 NCel=       1 NClECP=     1 NCelD=      1
         NCelK=      1 NCelE2=     1 NClLst=     1 CellRange=     0.0.
 One-electron integrals computed using PRISM.
 NBasis=    24 RedAO= F EigKep=  0.00D+00  NBF=    24
 NBsUse=    24 1.00D-04 EigRej=  0.00D+00 NBFU=    24
 Leave Link  302 at Sat Mar 12 18:38:37 2016, MaxMem=    33554432 cpu:         0.0
 (Enter /opt/g09/g09/l303.exe)
 DipDrv:  MaxL=1.
 Leave Link  303 at Sat Mar 12 18:38:37 2016, MaxMem=    33554432 cpu:         0.0
 (Enter /opt/g09/g09/l401.exe)
 Simple Huckel Guess.
 JPrj=0 DoOrth=F DoCkMO=F.
 Leave Link  401 at Sat Mar 12 18:38:37 2016, MaxMem=    33554432 cpu:         0.0
 (Enter /opt/g09/g09/l502.exe)
 Closed shell SCF:
 Using DIIS extrapolation, IDIIS=  1040.
 Overlap will be assumed to be unity.
 Two-electron integral symmetry not used.
 Keep J ints in memory in canonical form, NReq=888082.
 IVT=       79475 IEndB=       79475 NGot=    33554432 MDV=    33473473
 LenX=    33473473 LenY=    33472456
 Requested convergence on RMS density matrix=1.00D-08 within 128 cycles.
 Requested convergence on MAX density matrix=1.00D-06.
 Requested convergence on             energy=1.00D-06.
 No special actions if energy rises.
 FoFCou: FMM=F IPFlag=           0 FMFlag=           0 FMFlg1=           0
         NFxFlg=           0 DoJE=F BraDBF=F KetDBF=F FulRan=T
         wScrn=  0.000000 ICntrl=     600 IOpCl=  2 I1Cent=           0 NGrid=           0
         NMat0=    1 NMatS0=     54 NMatT0=    0 NMatD0=    1 NMtDS0=    0 NMtDT0=    0
 Symmetry not used in FoFCou.

 Cycle   1  Pass 1  IDiag  1:
 E= 0.472230220085237E-01
 DIIS: error= 5.24D-02 at cycle   1 NSaved=   1.
 NSaved= 1 IEnMin= 1 EnMin= 0.472230220085237E-01 IErMin= 1 ErrMin= 5.24D-02
 ErrMax= 5.24D-02  0.00D+00 EMaxC= 1.00D-01 BMatC= 1.05D-01 BMatP= 1.05D-01
 IDIUse=3 WtCom= 4.76D-01 WtEn= 5.24D-01
 Coeff-Com:  0.100D+01
 Coeff-En:   0.100D+01
 Coeff:      0.100D+01
 GapD=    2.000 DampG=2.000 DampE=0.500 DampFc=1.0000 IDamp=-1.
 RMSDP=1.92D-02 MaxDP=1.53D-01              OVMax= 0.00D+00

 Cycle   2  Pass 1  IDiag  1:
 E=-0.222180911862495     Delta-E=       -0.269403933871 Rises=F Damp=F
 DIIS: error= 1.92D-02 at cycle   2 NSaved=   2.
 NSaved= 2 IEnMin= 2 EnMin=-0.222180911862495     IErMin= 2 ErrMin= 1.92D-02
 ErrMax= 1.92D-02  0.00D+00 EMaxC= 1.00D-01 BMatC= 9.34D-03 BMatP= 1.05D-01
 IDIUse=3 WtCom= 8.08D-01 WtEn= 1.92D-01
 Coeff-Com: -0.372D+00 0.137D+01
 Coeff-En:   0.000D+00 0.100D+01
 Coeff:     -0.301D+00 0.130D+01
 RMSDP=8.24D-03 MaxDP=7.50D-02 DE=-2.69D-01 OVMax= 0.00D+00

 Cycle   3  Pass 1  IDiag  3:
 E=-0.252302223986078     Delta-E=       -0.030121312124 Rises=F Damp=F
 DIIS: error= 3.32D-03 at cycle   3 NSaved=   3.
 NSaved= 3 IEnMin= 3 EnMin=-0.252302223986078     IErMin= 3 ErrMin= 3.32D-03
 ErrMax= 3.32D-03  0.00D+00 EMaxC= 1.00D-01 BMatC= 3.45D-04 BMatP= 9.34D-03
 IDIUse=3 WtCom= 9.67D-01 WtEn= 3.32D-02
 Coeff-Com:  0.130D+00-0.570D+00 0.144D+01
 Coeff-En:   0.000D+00 0.000D+00 0.100D+01
 Coeff:      0.125D+00-0.551D+00 0.143D+01
 Gap=     0.394 Goal=   None    Shift=    0.000
 RMSDP=2.49D-03 MaxDP=3.01D-02 DE=-3.01D-02 OVMax= 3.02D-02

 Cycle   4  Pass 1  IDiag  3:
 E=-0.254259610665244     Delta-E=       -0.001957386679 Rises=F Damp=F
 DIIS: error= 1.13D-03 at cycle   4 NSaved=   4.
 NSaved= 4 IEnMin= 4 EnMin=-0.254259610665244     IErMin= 4 ErrMin= 1.13D-03
 ErrMax= 1.13D-03  0.00D+00 EMaxC= 1.00D-01 BMatC= 2.99D-05 BMatP= 3.45D-04
 IDIUse=3 WtCom= 9.89D-01 WtEn= 1.13D-02
 Coeff-Com:  0.274D-01-0.938D-01-0.169D+00 0.124D+01
 Coeff-En:   0.000D+00 0.000D+00 0.000D+00 0.100D+01
 Coeff:      0.271D-01-0.927D-01-0.167D+00 0.123D+01
 Gap=     0.394 Goal=   None    Shift=    0.000
 RMSDP=9.01D-04 MaxDP=1.17D-02 DE=-1.96D-03 OVMax= 1.09D-02

 Cycle   5  Pass 1  IDiag  3:
 E=-0.254452556999453     Delta-E=       -0.000192946334 Rises=F Damp=F
 DIIS: error= 1.82D-04 at cycle   5 NSaved=   5.
 NSaved= 5 IEnMin= 5 EnMin=-0.254452556999453     IErMin= 5 ErrMin= 1.82D-04
 ErrMax= 1.82D-04  0.00D+00 EMaxC= 1.00D-01 BMatC= 1.75D-06 BMatP= 2.99D-05
 IDIUse=3 WtCom= 9.98D-01 WtEn= 1.82D-03
 Coeff-Com: -0.115D-01 0.426D-01 0.202D-01-0.483D+00 0.143D+01
 Coeff-En:   0.000D+00 0.000D+00 0.000D+00 0.000D+00 0.100D+01
 Coeff:     -0.114D-01 0.425D-01 0.202D-01-0.482D+00 0.143D+01
 Gap=     0.394 Goal=   None    Shift=    0.000
 RMSDP=2.41D-04 MaxDP=2.23D-03 DE=-1.93D-04 OVMax= 2.49D-03

 Cycle   6  Pass 1  IDiag  3:
 E=-0.254465162802944     Delta-E=       -0.000012605803 Rises=F Damp=F
 DIIS: error= 7.93D-05 at cycle   6 NSaved=   6.
 NSaved= 6 IEnMin= 6 EnMin=-0.254465162802944     IErMin= 6 ErrMin= 7.93D-05
 ErrMax= 7.93D-05  0.00D+00 EMaxC= 1.00D-01 BMatC= 1.56D-07 BMatP= 1.75D-06
 IDIUse=1 WtCom= 1.00D+00 WtEn= 0.00D+00
 Coeff-Com:  0.280D-02-0.101D-01 0.481D-02 0.966D-01-0.520D+00 0.143D+01
 Coeff:      0.280D-02-0.101D-01 0.481D-02 0.966D-01-0.520D+00 0.143D+01
 Gap=     0.394 Goal=   None    Shift=    0.000
 RMSDP=7.58D-05 MaxDP=5.87D-04 DE=-1.26D-05 OVMax= 9.88D-04

 Cycle   7  Pass 1  IDiag  3:
 E=-0.254466392444982     Delta-E=       -0.000001229642 Rises=F Damp=F
 DIIS: error= 2.98D-05 at cycle   7 NSaved=   7.
 NSaved= 7 IEnMin= 7 EnMin=-0.254466392444982     IErMin= 7 ErrMin= 2.98D-05
 ErrMax= 2.98D-05  0.00D+00 EMaxC= 1.00D-01 BMatC= 1.48D-08 BMatP= 1.56D-07
 IDIUse=1 WtCom= 1.00D+00 WtEn= 0.00D+00
 Coeff-Com: -0.158D-03-0.887D-04 0.744D-03-0.136D-01 0.112D+00-0.631D+00
 Coeff-Com:  0.153D+01
 Coeff:     -0.158D-03-0.887D-04 0.744D-03-0.136D-01 0.112D+00-0.631D+00
 Coeff:      0.153D+01
 Gap=     0.394 Goal=   None    Shift=    0.000
 RMSDP=2.89D-05 MaxDP=2.54D-04 DE=-1.23D-06 OVMax= 3.52D-04

 Cycle   8  Pass 1  IDiag  3:
 E=-0.254466519260461     Delta-E=       -0.000000126815 Rises=F Damp=F
 DIIS: error= 5.60D-06 at cycle   8 NSaved=   8.
 NSaved= 8 IEnMin= 8 EnMin=-0.254466519260461     IErMin= 8 ErrMin= 5.60D-06
 ErrMax= 5.60D-06  0.00D+00 EMaxC= 1.00D-01 BMatC= 5.39D-10 BMatP= 1.48D-08
 IDIUse=1 WtCom= 1.00D+00 WtEn= 0.00D+00
 Coeff-Com: -0.257D-04 0.474D-03-0.988D-03 0.483D-02-0.385D-01 0.267D+00
 Coeff-Com: -0.791D+00 0.156D+01
 Coeff:     -0.257D-04 0.474D-03-0.988D-03 0.483D-02-0.385D-01 0.267D+00
 Coeff:     -0.791D+00 0.156D+01
 Gap=     0.394 Goal=   None    Shift=    0.000
 RMSDP=5.12D-06 MaxDP=4.68D-05 DE=-1.27D-07 OVMax= 5.91D-05

 Cycle   9  Pass 1  IDiag  3:
 E=-0.254466523473127     Delta-E=       -0.000000004213 Rises=F Damp=F
 DIIS: error= 8.77D-07 at cycle   9 NSaved=   9.
 NSaved= 9 IEnMin= 9 EnMin=-0.254466523473127     IErMin= 9 ErrMin= 8.77D-07
 ErrMax= 8.77D-07  0.00D+00 EMaxC= 1.00D-01 BMatC= 1.91D-11 BMatP= 5.39D-10
 IDIUse=1 WtCom= 1.00D+00 WtEn= 0.00D+00
 Coeff-Com:  0.411D-04-0.295D-03 0.392D-03-0.807D-03 0.974D-02-0.862D-01
 Coeff-Com:  0.275D+00-0.645D+00 0.145D+01
 Coeff:      0.411D-04-0.295D-03 0.392D-03-0.807D-03 0.974D-02-0.862D-01
 Coeff:      0.275D+00-0.645D+00 0.145D+01
 Gap=     0.394 Goal=   None    Shift=    0.000
 RMSDP=8.03D-07 MaxDP=6.59D-06 DE=-4.21D-09 OVMax= 9.70D-06

 Cycle  10  Pass 1  IDiag  3:
 E=-0.254466523593337     Delta-E=       -0.000000000120 Rises=F Damp=F
 DIIS: error= 9.80D-08 at cycle  10 NSaved=  10.
 NSaved=10 IEnMin=10 EnMin=-0.254466523593337     IErMin=10 ErrMin= 9.80D-08
 ErrMax= 9.80D-08  0.00D+00 EMaxC= 1.00D-01 BMatC= 7.25D-13 BMatP= 1.91D-11
 IDIUse=1 WtCom= 1.00D+00 WtEn= 0.00D+00
 Coeff-Com: -0.144D-04 0.103D-03-0.153D-03 0.343D-03-0.321D-02 0.282D-01
 Coeff-Com: -0.894D-01 0.212D+00-0.579D+00 0.143D+01
 Coeff:     -0.144D-04 0.103D-03-0.153D-03 0.343D-03-0.321D-02 0.282D-01
 Coeff:     -0.894D-01 0.212D+00-0.579D+00 0.143D+01
 Gap=     0.394 Goal=   None    Shift=    0.000
 RMSDP=1.41D-07 MaxDP=8.65D-07 DE=-1.20D-10 OVMax= 1.18D-06

 Cycle  11  Pass 1  IDiag  3:
 E=-0.254466523597515     Delta-E=       -0.000000000004 Rises=F Damp=F
 DIIS: error= 2.37D-08 at cycle  11 NSaved=  11.
 NSaved=11 IEnMin=11 EnMin=-0.254466523597515     IErMin=11 ErrMin= 2.37D-08
 ErrMax= 2.37D-08  0.00D+00 EMaxC= 1.00D-01 BMatC= 3.34D-14 BMatP= 7.25D-13
 IDIUse=1 WtCom= 1.00D+00 WtEn= 0.00D+00
 Coeff-Com:  0.321D-05-0.243D-04 0.387D-04-0.103D-03 0.795D-03-0.680D-02
 Coeff-Com:  0.212D-01-0.493D-01 0.142D+00-0.484D+00 0.138D+01
 Coeff:      0.321D-05-0.243D-04 0.387D-04-0.103D-03 0.795D-03-0.680D-02
 Coeff:      0.212D-01-0.493D-01 0.142D+00-0.484D+00 0.138D+01
 Gap=     0.394 Goal=   None    Shift=    0.000
 RMSDP=3.06D-08 MaxDP=2.14D-07 DE=-4.18D-12 OVMax= 1.91D-07

 Cycle  12  Pass 1  IDiag  3:
 E=-0.254466523597728     Delta-E=        0.000000000000 Rises=F Damp=F
 DIIS: error= 5.13D-09 at cycle  12 NSaved=  12.
 NSaved=12 IEnMin=12 EnMin=-0.254466523597728     IErMin=12 ErrMin= 5.13D-09
 ErrMax= 5.13D-09  0.00D+00 EMaxC= 1.00D-01 BMatC= 2.57D-15 BMatP= 3.34D-14
 IDIUse=1 WtCom= 1.00D+00 WtEn= 0.00D+00
 Coeff-Com: -0.655D-06 0.529D-05-0.908D-05 0.281D-04-0.171D-03 0.144D-02
 Coeff-Com: -0.439D-02 0.967D-02-0.297D-01 0.137D+00-0.637D+00 0.152D+01
 Coeff:     -0.655D-06 0.529D-05-0.908D-05 0.281D-04-0.171D-03 0.144D-02
 Coeff:     -0.439D-02 0.967D-02-0.297D-01 0.137D+00-0.637D+00 0.152D+01
 Gap=     0.394 Goal=   None    Shift=    0.000
 RMSDP=9.85D-09 MaxDP=5.46D-08 DE=-2.13D-13 OVMax= 8.05D-08

 Cycle  13  Pass 2  IDiag  1:
 SCF Done:  E(RAM1) = -0.254466523598     A.U. after   13 cycles
            NFock= 12  Conv=0.99D-08     -V/T= 0.9849
 KE=-1.683635414018D+01 PE=-1.706955858696D+02 EE= 8.409775102294D+01
 Leave Link  502 at Sat Mar 12 18:38:37 2016, MaxMem=    33554432 cpu:         0.0
 (Enter /opt/g09/g09/l601.exe)
 Copying SCF densities to generalized density rwf, IOpCl= 0 IROHF=0.

 **********************************************************************

            Population analysis using the SCF density.

 **********************************************************************

 Orbital symmetries:
       Occupied  (A) (A) (A) (A) (A) (A) (A) (A) (A) (A) (A) (A)
                 (A)
       Virtual   (A) (A) (A) (A) (A) (A) (A) (A) (A) (A) (A)
 The electronic state is 1-A.
 Alpha  occ. eigenvalues --   -1.55843  -1.23808  -1.10021  -0.83648  -0.83153
 Alpha  occ. eigenvalues --   -0.69173  -0.61525  -0.56240  -0.50117  -0.49139
 Alpha  occ. eigenvalues --   -0.48523  -0.40539  -0.35092
 Alpha virt. eigenvalues --    0.04352   0.08150   0.08948   0.12169   0.15396
 Alpha virt. eigenvalues --    0.16346   0.18199   0.18236   0.20728   0.22355
 Alpha virt. eigenvalues --    0.23842
          Condensed to atoms (all electrons):
               1          2          3          4          5          6
     1  C    4.213424   0.000000   0.000000   0.000000   0.000000   0.000000
     2  C    0.000000   4.098121   0.000000   0.000000   0.000000   0.000000
     3  O    0.000000   0.000000   6.104293   0.000000   0.000000   0.000000
     4  C    0.000000   0.000000   0.000000   4.103760   0.000000   0.000000
     5  C    0.000000   0.000000   0.000000   0.000000   4.183815   0.000000
     6  H    0.000000   0.000000   0.000000   0.000000   0.000000   0.841108
     7  H    0.000000   0.000000   0.000000   0.000000   0.000000   0.000000
     8  H    0.000000   0.000000   0.000000   0.000000   0.000000   0.000000
     9  H    0.000000   0.000000   0.000000   0.000000   0.000000   0.000000
               7          8          9
     1  C    0.000000   0.000000   0.000000
     2  C    0.000000   0.000000   0.000000
     3  O    0.000000   0.000000   0.000000
     4  C    0.000000   0.000000   0.000000
     5  C    0.000000   0.000000   0.000000
     6  H    0.000000   0.000000   0.000000
     7  H    0.810606   0.000000   0.000000
     8  H    0.000000   0.810744   0.000000
     9  H    0.000000   0.000000   0.834128
 Mulliken charges:
               1
     1  C   -0.213424
     2  C   -0.098121
     3  O   -0.104293
     4  C   -0.103760
     5  C   -0.183815
     6  H    0.158892
     7  H    0.189394
     8  H    0.189256
     9  H    0.165872
 Sum of Mulliken charges =   0.00000
 Mulliken charges with hydrogens summed into heavy atoms:
               1
     1  C   -0.047552
     2  C    0.091134
     3  O   -0.104293
     4  C    0.085634
     5  C   -0.024923
 Charge=              0.0000 electrons
 Dipole moment (field-independent basis, Debye):
    X=             -0.0091    Y=              0.5668    Z=              0.0210  Tot=              0.5673
 N-N= 1.031797224632D+02 E-N=-1.706955857860D+02  KE=-1.683635414018D+01
 Leave Link  601 at Sat Mar 12 18:38:37 2016, MaxMem=    33554432 cpu:         0.0
 (Enter /opt/g09/g09/l701.exe)
 Compute integral first derivatives.
 ... and contract with generalized density number  0.
 Leave Link  701 at Sat Mar 12 18:38:37 2016, MaxMem=    33554432 cpu:         0.0
 (Enter /opt/g09/g09/l702.exe)
 L702 exits ... SP integral derivatives will be done elsewhere.
 Leave Link  702 at Sat Mar 12 18:38:37 2016, MaxMem=    33554432 cpu:         0.0
 (Enter /opt/g09/g09/l703.exe)
 Compute integral first derivatives, UseDBF=F ICtDFT=           0.
 Integral derivatives from FoFJK, PRISM(SPDF).
 Calling FoFJK, ICntrl=      2127 FMM=F ISym2X=0 I1Cent= 0 IOpClX= 0 NMat=1 NMatS=1 NMatT=0.
 FoFJK:  IHMeth= 8 ICntrl=    2127 DoSepK=F KAlg= 0 I1Cent=   0 FoldK=F
 IRaf=         0 NMat=   1 IRICut=       1 DoRegI=T DoRafI=F ISym2E= 0.
 FoFCou: FMM=F IPFlag=           0 FMFlag=      100000 FMFlg1=         800
         NFxFlg=           0 DoJE=F BraDBF=F KetDBF=F FulRan=T
         wScrn=  0.000000 ICntrl=    2127 IOpCl=  0 I1Cent=           0 NGrid=           0
         NMat0=    1 NMatS0=      1 NMatT0=    0 NMatD0=    1 NMtDS0=    0 NMtDT0=    0
 Symmetry not used in FoFCou.
 Leave Link  703 at Sat Mar 12 18:38:37 2016, MaxMem=    33554432 cpu:         0.0
 (Enter /opt/g09/g09/l716.exe)
 Dipole        =-3.56496227D-03 2.22992623D-01 8.25033166D-03
 ***** Axes restored to original set *****
 -------------------------------------------------------------------
 Center     Atomic                   Forces (Hartrees/Bohr)
 Number     Number              X              Y              Z
 -------------------------------------------------------------------
      1        6          -0.005643906   -0.000632254    0.000181690
      2        6           0.027182798   -0.042916338    0.000607148
      3        8          -0.070373589    0.020097595   -0.000415457
      4        6          -0.036068841    0.018325001    0.000734757
      5        6           0.073032252   -0.006669225   -0.001694700
      6        1           0.020492083    0.013930348    0.000669406
      7        1          -0.021425669    0.033096634   -0.000188299
      8        1          -0.013517672   -0.019588195   -0.000210116
      9        1           0.026322544   -0.015643567    0.000315572
 -------------------------------------------------------------------
 Cartesian Forces:  Max     0.073032252 RMS     0.026289938
 Leave Link  716 at Sat Mar 12 18:38:37 2016, MaxMem=    33554432 cpu:         0.0
 (Enter /opt/g09/g09/l103.exe)

 GradGradGradGradGradGradGradGradGradGradGradGradGradGradGradGradGradGrad
 Berny optimization.
 FormGI is forming the generalized inverse of G from B-inverse, IUseBI=4.
 Internal  Forces:  Max     0.086050344 RMS     0.022546801
 Search for a local minimum.
 Step number   1 out of a maximum of   48
 All quantities printed in internal units (Hartrees-Bohrs-Radians)
 RMS Force = .22547D-01 SwitMx=.10000D-02 MixMth= 1
 Mixed Optimization -- RFO/linear search
 Second derivative matrix not updated -- first step.
 ITU=  0
     Eigenvalues ---    0.01746   0.01958   0.02157   0.02292   0.02348
     Eigenvalues ---    0.02736   0.15986   0.15998   0.15999   0.15999
     Eigenvalues ---    0.22000   0.22898   0.36168   0.36922   0.36923
     Eigenvalues ---    0.38547   0.39542   0.42698   0.46340   0.50326
     Eigenvalues ---    0.56827
 RFO step:  Lambda=-3.68939480D-02 EMin= 1.74629679D-02
 Linear search not attempted -- first point.
 Iteration  1 RMS(Cart)=  0.05689219 RMS(Int)=  0.00040611
 Iteration  2 RMS(Cart)=  0.00049967 RMS(Int)=  0.00009253
 Iteration  3 RMS(Cart)=  0.00000013 RMS(Int)=  0.00009253
 ITry= 1 IFail=0 DXMaxC= 1.51D-01 DCOld= 1.00D+10 DXMaxT= 3.00D-01 DXLimC= 3.00D+00 Rises=F
 Variable       Old X    -DE/DX   Delta X   Delta X   Delta X     New X
                                 (Linear)    (Quad)   (Total)
    R1        2.61287   0.03333   0.00000   0.05888   0.05874   2.67160
    R2        2.74749   0.02899   0.00000   0.06735   0.06732   2.81481
    R3        2.00277   0.03042   0.00000   0.07203   0.07203   2.07480
    R4        2.57150   0.06633   0.00000   0.11666   0.11660   2.68810
    R5        2.02665   0.02360   0.00000   0.05811   0.05811   2.08476
    R6        2.64305   0.03894   0.00000   0.08323   0.08335   2.72640
    R7        2.51877   0.08605   0.00000   0.14062   0.14075   2.65951
    R8        1.98880   0.03934   0.00000   0.09099   0.09099   2.07979
    R9        2.02662   0.02476   0.00000   0.06096   0.06096   2.08758
    A1        1.82249   0.01114   0.00000   0.02876   0.02858   1.85107
    A2        2.21443  -0.00213   0.00000   0.00312   0.00321   2.21764
    A3        2.24618  -0.00901   0.00000  -0.03186  -0.03177   2.21441
    A4        1.93065   0.00395   0.00000   0.00399   0.00379   1.93444
    A5        2.32471   0.00112   0.00000   0.01374   0.01384   2.33855
    A6        2.02774  -0.00507   0.00000  -0.01772  -0.01761   2.01013
    A7        1.87133  -0.00727   0.00000  -0.01790  -0.01784   1.85349
    A8        1.90735  -0.00059   0.00000   0.01133   0.01154   1.91890
    A9        2.00262  -0.00235   0.00000  -0.01908  -0.01920   1.98342
   A10        2.37316   0.00294   0.00000   0.00780   0.00769   2.38085
   A11        1.89285  -0.00722   0.00000  -0.02603  -0.02598   1.86688
   A12        2.16690   0.00296   0.00000   0.00990   0.00981   2.17671
   A13        2.22290   0.00429   0.00000   0.01664   0.01656   2.23946
    D1        0.00215  -0.00015   0.00000  -0.00362  -0.00372  -0.00157
    D2       -3.12526  -0.00024   0.00000  -0.00454  -0.00459  -3.12985
    D3       -3.12620  -0.00024   0.00000  -0.00528  -0.00538  -3.13158
    D4        0.02957  -0.00033   0.00000  -0.00620  -0.00624   0.02333
    D5       -0.00980   0.00054   0.00000   0.00909   0.00904  -0.00076
    D6       -3.11849  -0.00041   0.00000  -0.00682  -0.00678  -3.12527
    D7        3.11822   0.00071   0.00000   0.01117   0.01105   3.12927
    D8        0.00953  -0.00024   0.00000  -0.00474  -0.00477   0.00477
    D9        0.00584  -0.00010   0.00000  -0.00256  -0.00261   0.00324
   D10        3.13592   0.00002   0.00000  -0.00156  -0.00167   3.13424
   D11       -0.01230   0.00055   0.00000   0.00857   0.00858  -0.00372
   D12        3.13899   0.00030   0.00000   0.00493   0.00499  -3.13921
   D13        0.01367  -0.00061   0.00000  -0.01090  -0.01088   0.00279
   D14        3.12100   0.00034   0.00000   0.00547   0.00548   3.12647
   D15       -3.14059  -0.00034   0.00000  -0.00635  -0.00632   3.13627
   D16       -0.03326   0.00060   0.00000   0.01002   0.01004  -0.02322
         Item               Value     Threshold  Converged?
 Maximum Force            0.086050     0.000450     NO 
 RMS     Force            0.022547     0.000300     NO 
 Maximum Displacement     0.150632     0.001800     NO 
 RMS     Displacement     0.056819     0.001200     NO 
 Predicted change in Energy=-1.980665D-02
 Lowest energy point so far.  Saving SCF results.
 GradGradGradGradGradGradGradGradGradGradGradGradGradGradGradGradGradGrad

 Leave Link  103 at Sat Mar 12 18:38:37 2016, MaxMem=    33554432 cpu:         0.0
 (Enter /opt/g09/g09/l202.exe)
                          Input orientation:                          
 ---------------------------------------------------------------------
 Center     Atomic      Atomic             Coordinates (Angstroms)
 Number     Number       Type             X           Y           Z
 ---------------------------------------------------------------------
      1          6           0        0.997997   -0.730208    0.006961
      2          6           0       -0.358378   -1.128841    0.001530
      3          8           0       -1.218659    0.004016   -0.001664
      4          6           0       -0.358653    1.162422   -0.002540
      5          6           0        0.989710    0.759300    0.004947
      6          1           0        1.894179    1.393465   -0.006746
      7          1           0       -0.905078    2.117771   -0.002587
      8          1           0       -0.869744   -2.106338    0.009902
      9          1           0        1.879902   -1.384176    0.001551
 ---------------------------------------------------------------------
                    Distance matrix (angstroms):
                    1          2          3          4          5
     1  C    0.000000
     2  C    1.413751   0.000000
     3  O    2.335107   1.422483   0.000000
     4  C    2.328655   2.291267   1.442746   0.000000
     5  C    1.489532   2.320006   2.333965   1.407354   0.000000
     6  H    2.305062   3.381731   3.408864   2.264652   1.104702
     7  H    3.425313   3.292322   2.136889   1.100578   2.331464
     8  H    2.319957   1.103208   2.139035   3.308499   3.416061
     9  H    1.097934   2.252797   3.395316   3.390620   2.320978
                    6          7          8          9
     6  H    0.000000
     7  H    2.891449   0.000000
     8  H    4.459615   4.224276   0.000000
     9  H    2.777689   4.474345   2.842910   0.000000
 Stoichiometry    C4H4O
 Framework group  C1[X(C4H4O)]
 Deg. of freedom    21
 Full point group                 C1      NOp   1
 RotChk:  IX=0 Diff= 3.72D-02
 Largest Abelian subgroup         C1      NOp   1
 Largest concise Abelian subgroup C1      NOp   1
                         Standard orientation:                         
 ---------------------------------------------------------------------
 Center     Atomic      Atomic             Coordinates (Angstroms)
 Number     Number       Type             X           Y           Z
 ---------------------------------------------------------------------
      1          6           0       -0.760916    0.987306   -0.001717
      2          6           0       -1.133845   -0.376367    0.001625
      3          8           0        0.015063   -1.215097    0.000558
      4          6           0        1.157018   -0.333362    0.000839
      5          6           0        0.728483    1.007157   -0.002878
      6          1           0        1.345475    1.923419    0.009427
      7          1           0        2.122515   -0.861639   -0.002320
      8          1           0       -2.101525   -0.906090   -0.005780
      9          1           0       -1.431412    1.856684    0.006986
 ---------------------------------------------------------------------
 Rotational constants (GHZ):      8.7599005      8.5311292      4.3220251
 Leave Link  202 at Sat Mar 12 18:38:37 2016, MaxMem=    33554432 cpu:         0.0
 (Enter /opt/g09/g09/l301.exe)

 Semi-emprical parameters in input format:
 Method=8 CoreType=1 PeptideFC=0.0116743504 RIJScale=0.5291772086
 ****
 H       
 PQN=1 NValence=1 F0ss=0.4734304852 ZetaOverlap=1.1880780000 U=-0.4188110042
 Beta=-0.2268825074 CoreKO=1.0589197790 KON=0,0,0,1.0589197790 KON=1,0,1,1.0589197790
 KON=0,1,1,1.0589197790 KON=2,1,1,1.0589197790 EISol=-0.4188110042 EHeat=0.0830298228
 Alpha=1.5252601686
 GCore=0.0085044258,1.3397923650,2.3233135968
 GCore=0.0003502156,1.4001425905,3.4015070392
 GCore=-0.0012733648,0.5600570362,4.1494785000
 ****
 C       
 PQN=2,2 NValence=4 F0ss=0.4387265549 F0sp=0.4215147623 F0pp=0.3800125214 F2pp=0.1914453648
 G1sp=0.2679025821
 ZetaOverlap=1.8316981652,1.5375392746
 U=-1.9120180828,-1.4673234142
 Beta=-0.5494348306,-0.2836784428 DDN=0,1,0.8236736000 DDN=1,1,0.6945852836
 CoreKO=1.1124284736 KON=0,0,0,1.1539073742 KON=1,0,1,0.8219701441 KON=0,1,1,1.0895697235
 KON=2,1,1,0.7807744378 EISol=-4.4398989268 EHeat=0.2723305520 Alpha=1.4121564773
 DipHyp=1.6472524267
 GCore=0.0007885612,1.4001425905,3.0372100303
 GCore=0.0031892455,1.4001425905,3.5869991260
 GCore=-0.0014581048,1.3831616189,3.8739385724
 GCore=-0.0000875022,1.4001425905,5.0077742521
 ****
 O       
 PQN=2,2 NValence=6 F0ss=0.5539165357 F0sp=0.5315959624 F0pp=0.4958708974 F2pp=0.2381850701
 G1sp=0.4343770262
 ZetaOverlap=3.1080320000,2.5579943270
 U=-3.5951865036,-2.8748871058
 Beta=-1.0757546603,-1.0757546603 DDN=0,1,0.4988896000 DDN=1,1,0.4852322000
 CoreKO=0.8822957477 KON=0,0,0,0.8822957477 KON=1,0,1,0.5019543089 KON=0,1,1,0.8822957477
 KON=2,1,1,0.5515584117 EISol=-11.6164441184 EHeat=0.0949133088 Alpha=2.3630729218
 DipHyp=0.9977217969
 GCore=0.0195117322,1.4001425905,1.6023328031
 GCore=0.0057489399,1.9601996266,2.7307884326
 ****
 
 Standard basis: VSTO-6G (5D, 7F)
 Ernie: Thresh=  0.10000D-02 Tol=  0.10000D-05 Strict=F.
  NNHCO=     0 NNPyr=     0 NCTC=     0               EPep=         0.000000000
    EC=        66.814653864  ECS=         1.519569054   EG=         0.312040249
   EHC=         0.000000000  EAt=       -31.051283842  AtH=         1.516354808
 EPDDG=         0.000000000  ECC=        68.646263168 EAtT=        32.567638650
 There are    24 symmetry adapted cartesian basis functions of A   symmetry.
 There are    24 symmetry adapted basis functions of A   symmetry.
    24 basis functions,   144 primitive gaussians,    24 cartesian basis functions
    13 alpha electrons       13 beta electrons
       nuclear repulsion energy       101.2139018182 Hartrees.
 IExCor=    0 DFT=F Ex=HF Corr=None ExCW=0 ScaHFX=  1.000000
 ScaDFX=  1.000000  1.000000  1.000000  1.000000 ScalE2=  1.000000  1.000000
 IRadAn=      0 IRanWt=     -1 IRanGd=            0 ICorTp=0 IEmpDi=  4
 Integral buffers will be    131072 words long.
 Regular integral format.
 Two-electron integral symmetry is turned off.
 Leave Link  301 at Sat Mar 12 18:38:37 2016, MaxMem=    33554432 cpu:         0.0
 (Enter /opt/g09/g09/l302.exe)
 Do NDO integrals.
 NPDir=0 NMtPBC=     1 NCelOv=     1 NCel=       1 NClECP=     1 NCelD=      1
         NCelK=      1 NCelE2=     1 NClLst=     1 CellRange=     0.0.
 One-electron integrals computed using PRISM.
 NBasis=    24 RedAO= F EigKep=  0.00D+00  NBF=    24
 NBsUse=    24 1.00D-04 EigRej=  0.00D+00 NBFU=    24
 Leave Link  302 at Sat Mar 12 18:38:38 2016, MaxMem=    33554432 cpu:         0.0
 (Enter /opt/g09/g09/l303.exe)
 DipDrv:  MaxL=1.
 Leave Link  303 at Sat Mar 12 18:38:38 2016, MaxMem=    33554432 cpu:         0.0
 (Enter /opt/g09/g09/l401.exe)
 Initial guess from the checkpoint file:  "/opt/g09/scratch/Gau-16368.chk"
 B after Tr=     0.000000    0.000000    0.000000
         Rot=    0.999909   -0.000013    0.000000   -0.013522 Ang=  -1.55 deg.
 Guess basis will be translated and rotated to current coordinates.
 JPrj=0 DoOrth=T DoCkMO=T.
 Leave Link  401 at Sat Mar 12 18:38:38 2016, MaxMem=    33554432 cpu:         0.0
 (Enter /opt/g09/g09/l502.exe)
 Closed shell SCF:
 Using DIIS extrapolation, IDIIS=  1040.
 Overlap will be assumed to be unity.
 Two-electron integral symmetry not used.
 Keep J ints in memory in canonical form, NReq=888082.
 IVT=       79475 IEndB=       79475 NGot=    33554432 MDV=    33473473
 LenX=    33473473 LenY=    33472456
 Requested convergence on RMS density matrix=1.00D-08 within 128 cycles.
 Requested convergence on MAX density matrix=1.00D-06.
 Requested convergence on             energy=1.00D-06.
 No special actions if energy rises.
 FoFCou: FMM=F IPFlag=           0 FMFlag=           0 FMFlg1=           0
         NFxFlg=           0 DoJE=F BraDBF=F KetDBF=F FulRan=T
         wScrn=  0.000000 ICntrl=     600 IOpCl=  2 I1Cent=           0 NGrid=           0
         NMat0=    1 NMatS0=     54 NMatT0=    0 NMatD0=    1 NMtDS0=    0 NMtDT0=    0
 Symmetry not used in FoFCou.

 Cycle   1  Pass 1  IDiag  1:
 E=-0.262408826420568    
 DIIS: error= 5.69D-03 at cycle   1 NSaved=   1.
 NSaved= 1 IEnMin= 1 EnMin=-0.262408826420568     IErMin= 1 ErrMin= 5.69D-03
 ErrMax= 5.69D-03  0.00D+00 EMaxC= 1.00D-01 BMatC= 1.41D-03 BMatP= 1.41D-03
 IDIUse=3 WtCom= 9.43D-01 WtEn= 5.69D-02
 Coeff-Com:  0.100D+01
 Coeff-En:   0.100D+01
 Coeff:      0.100D+01
 GapD=    2.000 DampG=2.000 DampE=1.000 DampFc=2.0000 IDamp=-1.
 RMSDP=2.21D-03 MaxDP=1.36D-02              OVMax= 0.00D+00

 Cycle   2  Pass 1  IDiag  3:
 E=-0.265759561386162     Delta-E=       -0.003350734966 Rises=F Damp=F
 DIIS: error= 1.49D-03 at cycle   2 NSaved=   2.
 NSaved= 2 IEnMin= 2 EnMin=-0.265759561386162     IErMin= 2 ErrMin= 1.49D-03
 ErrMax= 1.49D-03  0.00D+00 EMaxC= 1.00D-01 BMatC= 1.02D-04 BMatP= 1.41D-03
 IDIUse=3 WtCom= 9.85D-01 WtEn= 1.49D-02
 Coeff-Com: -0.286D+00 0.129D+01
 Coeff-En:   0.000D+00 0.100D+01
 Coeff:     -0.282D+00 0.128D+01
 Gap=     0.377 Goal=   None    Shift=    0.000
 RMSDP=9.27D-04 MaxDP=5.85D-03 DE=-3.35D-03 OVMax= 4.46D-03

 Cycle   3  Pass 1  IDiag  3:
 E=-0.266114353978082     Delta-E=       -0.000354792592 Rises=F Damp=F
 DIIS: error= 3.15D-04 at cycle   3 NSaved=   3.
 NSaved= 3 IEnMin= 3 EnMin=-0.266114353978082     IErMin= 3 ErrMin= 3.15D-04
 ErrMax= 3.15D-04  0.00D+00 EMaxC= 1.00D-01 BMatC= 4.29D-06 BMatP= 1.02D-04
 IDIUse=3 WtCom= 9.97D-01 WtEn= 3.15D-03
 Coeff-Com:  0.157D-01-0.187D+00 0.117D+01
 Coeff-En:   0.000D+00 0.000D+00 0.100D+01
 Coeff:      0.157D-01-0.186D+00 0.117D+01
 Gap=     0.376 Goal=   None    Shift=    0.000
 RMSDP=2.60D-04 MaxDP=1.83D-03 DE=-3.55D-04 OVMax= 2.13D-03

 Cycle   4  Pass 1  IDiag  3:
 E=-0.266137910869375     Delta-E=       -0.000023556891 Rises=F Damp=F
 DIIS: error= 1.49D-04 at cycle   4 NSaved=   4.
 NSaved= 4 IEnMin= 4 EnMin=-0.266137910869375     IErMin= 4 ErrMin= 1.49D-04
 ErrMax= 1.49D-04  0.00D+00 EMaxC= 1.00D-01 BMatC= 6.10D-07 BMatP= 4.29D-06
 IDIUse=3 WtCom= 9.99D-01 WtEn= 1.49D-03
 Coeff-Com:  0.231D-01-0.674D-01-0.346D+00 0.139D+01
 Coeff-En:   0.000D+00 0.000D+00 0.000D+00 0.100D+01
 Coeff:      0.230D-01-0.673D-01-0.346D+00 0.139D+01
 Gap=     0.376 Goal=   None    Shift=    0.000
 RMSDP=1.40D-04 MaxDP=1.17D-03 DE=-2.36D-05 OVMax= 1.07D-03

 Cycle   5  Pass 1  IDiag  3:
 E=-0.266142447020499     Delta-E=       -0.000004536151 Rises=F Damp=F
 DIIS: error= 4.24D-05 at cycle   5 NSaved=   5.
 NSaved= 5 IEnMin= 5 EnMin=-0.266142447020499     IErMin= 5 ErrMin= 4.24D-05
 ErrMax= 4.24D-05  0.00D+00 EMaxC= 1.00D-01 BMatC= 6.27D-08 BMatP= 6.10D-07
 IDIUse=1 WtCom= 1.00D+00 WtEn= 0.00D+00
 Coeff-Com: -0.156D-01 0.558D-01 0.146D+00-0.947D+00 0.176D+01
 Coeff:     -0.156D-01 0.558D-01 0.146D+00-0.947D+00 0.176D+01
 Gap=     0.376 Goal=   None    Shift=    0.000
 RMSDP=6.22D-05 MaxDP=4.21D-04 DE=-4.54D-06 OVMax= 6.44D-04

 Cycle   6  Pass 1  IDiag  3:
 E=-0.266143027981158     Delta-E=       -0.000000580961 Rises=F Damp=F
 DIIS: error= 9.89D-06 at cycle   6 NSaved=   6.
 NSaved= 6 IEnMin= 6 EnMin=-0.266143027981158     IErMin= 6 ErrMin= 9.89D-06
 ErrMax= 9.89D-06  0.00D+00 EMaxC= 1.00D-01 BMatC= 2.58D-09 BMatP= 6.27D-08
 IDIUse=1 WtCom= 1.00D+00 WtEn= 0.00D+00
 Coeff-Com:  0.712D-02-0.266D-01-0.514D-01 0.403D+00-0.895D+00 0.156D+01
 Coeff:      0.712D-02-0.266D-01-0.514D-01 0.403D+00-0.895D+00 0.156D+01
 Gap=     0.376 Goal=   None    Shift=    0.000
 RMSDP=1.19D-05 MaxDP=9.58D-05 DE=-5.81D-07 OVMax= 1.32D-04

 Cycle   7  Pass 1  IDiag  3:
 E=-0.266143049505914     Delta-E=       -0.000000021525 Rises=F Damp=F
 DIIS: error= 1.82D-06 at cycle   7 NSaved=   7.
 NSaved= 7 IEnMin= 7 EnMin=-0.266143049505914     IErMin= 7 ErrMin= 1.82D-06
 ErrMax= 1.82D-06  0.00D+00 EMaxC= 1.00D-01 BMatC= 1.15D-10 BMatP= 2.58D-09
 IDIUse=1 WtCom= 1.00D+00 WtEn= 0.00D+00
 Coeff-Com: -0.215D-02 0.794D-02 0.153D-01-0.120D+00 0.280D+00-0.639D+00
 Coeff-Com:  0.146D+01
 Coeff:     -0.215D-02 0.794D-02 0.153D-01-0.120D+00 0.280D+00-0.639D+00
 Coeff:      0.146D+01
 Gap=     0.376 Goal=   None    Shift=    0.000
 RMSDP=2.18D-06 MaxDP=1.78D-05 DE=-2.15D-08 OVMax= 2.34D-05

 Cycle   8  Pass 1  IDiag  3:
 E=-0.266143050332886     Delta-E=       -0.000000000827 Rises=F Damp=F
 DIIS: error= 3.53D-07 at cycle   8 NSaved=   8.
 NSaved= 8 IEnMin= 8 EnMin=-0.266143050332886     IErMin= 8 ErrMin= 3.53D-07
 ErrMax= 3.53D-07  0.00D+00 EMaxC= 1.00D-01 BMatC= 4.50D-12 BMatP= 1.15D-10
 IDIUse=1 WtCom= 1.00D+00 WtEn= 0.00D+00
 Coeff-Com:  0.687D-03-0.251D-02-0.498D-02 0.383D-01-0.901D-01 0.218D+00
 Coeff-Com: -0.631D+00 0.147D+01
 Coeff:      0.687D-03-0.251D-02-0.498D-02 0.383D-01-0.901D-01 0.218D+00
 Coeff:     -0.631D+00 0.147D+01
 Gap=     0.376 Goal=   None    Shift=    0.000
 RMSDP=4.26D-07 MaxDP=3.35D-06 DE=-8.27D-10 OVMax= 4.52D-06

 Cycle   9  Pass 1  IDiag  3:
 E=-0.266143050364505     Delta-E=       -0.000000000032 Rises=F Damp=F
 DIIS: error= 5.89D-08 at cycle   9 NSaved=   9.
 NSaved= 9 IEnMin= 9 EnMin=-0.266143050364505     IErMin= 9 ErrMin= 5.89D-08
 ErrMax= 5.89D-08  0.00D+00 EMaxC= 1.00D-01 BMatC= 2.11D-13 BMatP= 4.50D-12
 IDIUse=1 WtCom= 1.00D+00 WtEn= 0.00D+00
 Coeff-Com: -0.150D-03 0.536D-03 0.115D-02-0.838D-02 0.199D-01-0.507D-01
 Coeff-Com:  0.173D+00-0.557D+00 0.142D+01
 Coeff:     -0.150D-03 0.536D-03 0.115D-02-0.838D-02 0.199D-01-0.507D-01
 Coeff:      0.173D+00-0.557D+00 0.142D+01
 Gap=     0.376 Goal=   None    Shift=    0.000
 RMSDP=8.54D-08 MaxDP=5.95D-07 DE=-3.16D-11 OVMax= 6.86D-07

 Cycle  10  Pass 1  IDiag  3:
 E=-0.266143050366324     Delta-E=       -0.000000000002 Rises=F Damp=F
 DIIS: error= 2.00D-08 at cycle  10 NSaved=  10.
 NSaved=10 IEnMin=10 EnMin=-0.266143050366324     IErMin=10 ErrMin= 2.00D-08
 ErrMax= 2.00D-08  0.00D+00 EMaxC= 1.00D-01 BMatC= 1.87D-14 BMatP= 2.11D-13
 IDIUse=1 WtCom= 1.00D+00 WtEn= 0.00D+00
 Coeff-Com:  0.470D-04-0.164D-03-0.380D-03 0.261D-02-0.620D-02 0.162D-01
 Coeff-Com: -0.614D-01 0.222D+00-0.787D+00 0.161D+01
 Coeff:      0.470D-04-0.164D-03-0.380D-03 0.261D-02-0.620D-02 0.162D-01
 Coeff:     -0.614D-01 0.222D+00-0.787D+00 0.161D+01
 Gap=     0.376 Goal=   None    Shift=    0.000
 RMSDP=3.05D-08 MaxDP=2.46D-07 DE=-1.82D-12 OVMax= 2.87D-07

 Cycle  11  Pass 1  IDiag  3:
 E=-0.266143050366679     Delta-E=        0.000000000000 Rises=F Damp=F
 DIIS: error= 5.19D-09 at cycle  11 NSaved=  11.
 NSaved=11 IEnMin=11 EnMin=-0.266143050366679     IErMin=11 ErrMin= 5.19D-09
 ErrMax= 5.19D-09  0.00D+00 EMaxC= 1.00D-01 BMatC= 1.04D-15 BMatP= 1.87D-14
 IDIUse=1 WtCom= 1.00D+00 WtEn= 0.00D+00
 Coeff-Com: -0.122D-04 0.401D-04 0.109D-03-0.678D-03 0.163D-02-0.463D-02
 Coeff-Com:  0.209D-01-0.852D-01 0.350D+00-0.898D+00 0.162D+01
 Coeff:     -0.122D-04 0.401D-04 0.109D-03-0.678D-03 0.163D-02-0.463D-02
 Coeff:      0.209D-01-0.852D-01 0.350D+00-0.898D+00 0.162D+01
 Gap=     0.376 Goal=   None    Shift=    0.000
 RMSDP=7.05D-09 MaxDP=6.85D-08 DE=-3.55D-13 OVMax= 7.97D-08

 Cycle  12  Pass 2  IDiag  1:
 SCF Done:  E(RAM1) = -0.266143050367     A.U. after   12 cycles
            NFock= 11  Conv=0.70D-08     -V/T= 0.9840
 KE=-1.658615343520D+01 PE=-1.675521803222D+02 EE= 8.265828888883D+01
 Leave Link  502 at Sat Mar 12 18:38:38 2016, MaxMem=    33554432 cpu:         0.0
 (Enter /opt/g09/g09/l701.exe)
 Compute integral first derivatives.
 ... and contract with generalized density number  0.
 Leave Link  701 at Sat Mar 12 18:38:38 2016, MaxMem=    33554432 cpu:         0.0
 (Enter /opt/g09/g09/l702.exe)
 L702 exits ... SP integral derivatives will be done elsewhere.
 Leave Link  702 at Sat Mar 12 18:38:38 2016, MaxMem=    33554432 cpu:         0.0
 (Enter /opt/g09/g09/l703.exe)
 Compute integral first derivatives, UseDBF=F ICtDFT=           0.
 Integral derivatives from FoFJK, PRISM(SPDF).
 Calling FoFJK, ICntrl=      2127 FMM=F ISym2X=0 I1Cent= 0 IOpClX= 0 NMat=1 NMatS=1 NMatT=0.
 FoFJK:  IHMeth= 8 ICntrl=    2127 DoSepK=F KAlg= 0 I1Cent=   0 FoldK=F
 IRaf=         0 NMat=   1 IRICut=       1 DoRegI=T DoRafI=F ISym2E= 0.
 FoFCou: FMM=F IPFlag=           0 FMFlag=      100000 FMFlg1=         800
         NFxFlg=           0 DoJE=F BraDBF=F KetDBF=F FulRan=T
         wScrn=  0.000000 ICntrl=    2127 IOpCl=  0 I1Cent=           0 NGrid=           0
         NMat0=    1 NMatS0=      1 NMatT0=    0 NMatD0=    1 NMtDS0=    0 NMtDT0=    0
 Symmetry not used in FoFCou.
 Leave Link  703 at Sat Mar 12 18:38:38 2016, MaxMem=    33554432 cpu:         0.0
 (Enter /opt/g09/g09/l716.exe)
 Dipole        =-4.76450297D-03 3.13834751D-01 3.17097093D-03
 ***** Axes restored to original set *****
 -------------------------------------------------------------------
 Center     Atomic                   Forces (Hartrees/Bohr)
 Number     Number              X              Y              Z
 -------------------------------------------------------------------
      1        6          -0.034692725    0.015095402   -0.000728970
      2        6           0.025632096    0.012753734    0.000766040
      3        8           0.020313118    0.007573786    0.000103950
      4        6           0.016225332   -0.023731379    0.000541299
      5        6          -0.022152834   -0.013353395   -0.001202380
      6        1          -0.004236431   -0.001162304    0.000584656
      7        1          -0.000067000   -0.002692628   -0.000100391
      8        1          -0.001533458    0.004426110   -0.000318145
      9        1           0.000511901    0.001090674    0.000353940
 -------------------------------------------------------------------
 Cartesian Forces:  Max     0.034692725 RMS     0.012575692
 Leave Link  716 at Sat Mar 12 18:38:38 2016, MaxMem=    33554432 cpu:         0.0
 (Enter /opt/g09/g09/l103.exe)

 GradGradGradGradGradGradGradGradGradGradGradGradGradGradGradGradGradGrad
 Berny optimization.
 Using GEDIIS/GDIIS optimizer.
 FormGI is forming the generalized inverse of G from B-inverse, IUseBI=4.
 Internal  Forces:  Max     0.032259035 RMS     0.009166298
 Search for a local minimum.
 Step number   2 out of a maximum of   48
 All quantities printed in internal units (Hartrees-Bohrs-Radians)
 RMS Force = .91663D-02 SwitMx=.10000D-02 MixMth= 1
 Mixed Optimization -- RFO/linear search
 Update second derivatives using D2CorX and points    1    2
 DE= -1.17D-02 DEPred=-1.98D-02 R= 5.90D-01
 TightC=F SS=  1.41D+00  RLast= 2.72D-01 DXNew= 5.0454D-01 8.1578D-01
 Trust test= 5.90D-01 RLast= 2.72D-01 DXMaxT set to 5.05D-01
 ITU=  1  0
 Use linear search instead of GDIIS.
     Eigenvalues ---    0.01756   0.01960   0.02159   0.02293   0.02352
     Eigenvalues ---    0.02741   0.15839   0.15997   0.15999   0.16012
     Eigenvalues ---    0.21860   0.22908   0.35509   0.36922   0.37422
     Eigenvalues ---    0.38289   0.39298   0.42964   0.49074   0.50092
     Eigenvalues ---    0.79241
 RFO step:  Lambda=-1.60214695D-03 EMin= 1.75582467D-02
 Quartic linear search produced a step of -0.26143.
 Iteration  1 RMS(Cart)=  0.01570528 RMS(Int)=  0.00006981
 Iteration  2 RMS(Cart)=  0.00006588 RMS(Int)=  0.00003638
 Iteration  3 RMS(Cart)=  0.00000000 RMS(Int)=  0.00003638
 ITry= 1 IFail=0 DXMaxC= 3.49D-02 DCOld= 1.00D+10 DXMaxT= 5.05D-01 DXLimC= 3.00D+00 Rises=F
 Variable       Old X    -DE/DX   Delta X   Delta X   Delta X     New X
                                 (Linear)    (Quad)   (Total)
    R1        2.67160  -0.03226  -0.01536  -0.03139  -0.04669   2.62491
    R2        2.81481  -0.02192  -0.01760  -0.02401  -0.04157   2.77324
    R3        2.07480  -0.00024  -0.01883   0.02014   0.00131   2.07610
    R4        2.68810  -0.01387  -0.03048   0.01517  -0.01532   2.67279
    R5        2.08476  -0.00321  -0.01519   0.01017  -0.00502   2.07974
    R6        2.72640  -0.02271  -0.02179  -0.01239  -0.03423   2.69216
    R7        2.65951  -0.02955  -0.03680   0.00367  -0.03315   2.62636
    R8        2.07979  -0.00230  -0.02379   0.02178  -0.00201   2.07778
    R9        2.08758  -0.00414  -0.01594   0.00913  -0.00681   2.08078
    A1        1.85107   0.00260  -0.00747   0.01619   0.00881   1.85988
    A2        2.21764  -0.00007  -0.00084   0.00207   0.00118   2.21882
    A3        2.21441  -0.00253   0.00831  -0.01820  -0.00995   2.20446
    A4        1.93444  -0.00211  -0.00099  -0.00427  -0.00521   1.92923
    A5        2.33855   0.00461  -0.00362   0.02248   0.01884   2.35739
    A6        2.01013  -0.00250   0.00461  -0.01818  -0.01360   1.99652
    A7        1.85349  -0.00144   0.00466  -0.00756  -0.00297   1.85051
    A8        1.91890   0.00049  -0.00302   0.00343   0.00035   1.91924
    A9        1.98342  -0.00169   0.00502  -0.01183  -0.00678   1.97664
   A10        2.38085   0.00121  -0.00201   0.00840   0.00642   2.38727
   A11        1.86688   0.00047   0.00679  -0.00779  -0.00098   1.86590
   A12        2.17671   0.00131  -0.00256   0.01014   0.00758   2.18428
   A13        2.23946  -0.00177  -0.00433  -0.00219  -0.00652   2.23294
    D1       -0.00157   0.00001   0.00097   0.00073   0.00172   0.00015
    D2       -3.12985  -0.00008   0.00120  -0.00255  -0.00135  -3.13120
    D3       -3.13158  -0.00017   0.00141  -0.00544  -0.00404  -3.13562
    D4        0.02333  -0.00026   0.00163  -0.00871  -0.00710   0.01623
    D5       -0.00076   0.00003  -0.00236   0.00067  -0.00168  -0.00244
    D6       -3.12527  -0.00027   0.00177  -0.00878  -0.00704  -3.13231
    D7        3.12927   0.00024  -0.00289   0.00700   0.00412   3.13339
    D8        0.00477  -0.00007   0.00125  -0.00246  -0.00125   0.00352
    D9        0.00324  -0.00005   0.00068  -0.00180  -0.00110   0.00214
   D10        3.13424   0.00008   0.00044   0.00112   0.00154   3.13578
   D11       -0.00372   0.00007  -0.00224   0.00223  -0.00002  -0.00373
   D12       -3.13921   0.00008  -0.00130   0.00275   0.00140  -3.13781
   D13        0.00279  -0.00006   0.00284  -0.00179   0.00105   0.00384
   D14        3.12647   0.00030  -0.00143   0.00827   0.00680   3.13327
   D15        3.13627  -0.00008   0.00165  -0.00259  -0.00093   3.13534
   D16       -0.02322   0.00028  -0.00262   0.00747   0.00482  -0.01841
         Item               Value     Threshold  Converged?
 Maximum Force            0.032259     0.000450     NO 
 RMS     Force            0.009166     0.000300     NO 
 Maximum Displacement     0.034916     0.001800     NO 
 RMS     Displacement     0.015731     0.001200     NO 
 Predicted change in Energy=-2.220726D-03
 Lowest energy point so far.  Saving SCF results.
 GradGradGradGradGradGradGradGradGradGradGradGradGradGradGradGradGradGrad

 Leave Link  103 at Sat Mar 12 18:38:38 2016, MaxMem=    33554432 cpu:         0.0
 (Enter /opt/g09/g09/l202.exe)
                          Input orientation:                          
 ---------------------------------------------------------------------
 Center     Atomic      Atomic             Coordinates (Angstroms)
 Number     Number       Type             X           Y           Z
 ---------------------------------------------------------------------
      1          6           0        0.984450   -0.720646    0.004620
      2          6           0       -0.346062   -1.119606    0.002316
      3          8           0       -1.201745    0.006564   -0.000924
      4          6           0       -0.349446    1.148120   -0.003499
      5          6           0        0.981173    0.746885    0.002955
      6          1           0        1.880044    1.382812   -0.004260
      7          1           0       -0.899222    2.100315   -0.002344
      8          1           0       -0.869151   -2.087862    0.010408
      9          1           0        1.871236   -1.369170    0.002083
 ---------------------------------------------------------------------
                    Distance matrix (angstroms):
                    1          2          3          4          5
     1  C    0.000000
     2  C    1.389041   0.000000
     3  O    2.303978   1.414377   0.000000
     4  C    2.296003   2.267735   1.424630   0.000000
     5  C    1.467536   2.290271   2.305043   1.389812   0.000000
     6  H    2.286198   3.349281   3.375128   2.241808   1.101101
     7  H    3.392063   3.267093   2.115494   1.099514   2.316827
     8  H    2.303291   1.100549   2.120699   3.277478   3.385195
     9  H    1.098626   2.231298   3.366878   3.356815   2.295627
                    6          7          8          9
     6  H    0.000000
     7  H    2.870389   0.000000
     8  H    4.427625   4.188304   0.000000
     9  H    2.752003   4.439908   2.833074   0.000000
 Stoichiometry    C4H4O
 Framework group  C1[X(C4H4O)]
 Deg. of freedom    21
 Full point group                 C1      NOp   1
 RotChk:  IX=2 Diff= 2.03D-02
 Largest Abelian subgroup         C1      NOp   1
 Largest concise Abelian subgroup C1      NOp   1
                         Standard orientation:                         
 ---------------------------------------------------------------------
 Center     Atomic      Atomic             Coordinates (Angstroms)
 Number     Number       Type             X           Y           Z
 ---------------------------------------------------------------------
      1          6           0       -0.764255    0.959893   -0.000516
      2          6           0       -1.118810   -0.383135    0.000938
      3          8           0        0.035155   -1.200954    0.000332
      4          6           0        1.147785   -0.311221    0.001337
      5          6           0        0.702576    1.005347   -0.002358
      6          1           0        1.308322    1.924829    0.004557
      7          1           0        2.117703   -0.829074   -0.002835
      8          1           0       -2.069181   -0.938078   -0.005552
      9          1           0       -1.441857    1.824650    0.004769
 ---------------------------------------------------------------------
 Rotational constants (GHZ):      8.9553004      8.7443777      4.4243048
 Leave Link  202 at Sat Mar 12 18:38:38 2016, MaxMem=    33554432 cpu:         0.0
 (Enter /opt/g09/g09/l301.exe)

 Semi-emprical parameters in input format:
 Method=8 CoreType=1 PeptideFC=0.0116743504 RIJScale=0.5291772086
 ****
 H       
 PQN=1 NValence=1 F0ss=0.4734304852 ZetaOverlap=1.1880780000 U=-0.4188110042
 Beta=-0.2268825074 CoreKO=1.0589197790 KON=0,0,0,1.0589197790 KON=1,0,1,1.0589197790
 KON=0,1,1,1.0589197790 KON=2,1,1,1.0589197790 EISol=-0.4188110042 EHeat=0.0830298228
 Alpha=1.5252601686
 GCore=0.0085044258,1.3397923650,2.3233135968
 GCore=0.0003502156,1.4001425905,3.4015070392
 GCore=-0.0012733648,0.5600570362,4.1494785000
 ****
 C       
 PQN=2,2 NValence=4 F0ss=0.4387265549 F0sp=0.4215147623 F0pp=0.3800125214 F2pp=0.1914453648
 G1sp=0.2679025821
 ZetaOverlap=1.8316981652,1.5375392746
 U=-1.9120180828,-1.4673234142
 Beta=-0.5494348306,-0.2836784428 DDN=0,1,0.8236736000 DDN=1,1,0.6945852836
 CoreKO=1.1124284736 KON=0,0,0,1.1539073742 KON=1,0,1,0.8219701441 KON=0,1,1,1.0895697235
 KON=2,1,1,0.7807744378 EISol=-4.4398989268 EHeat=0.2723305520 Alpha=1.4121564773
 DipHyp=1.6472524267
 GCore=0.0007885612,1.4001425905,3.0372100303
 GCore=0.0031892455,1.4001425905,3.5869991260
 GCore=-0.0014581048,1.3831616189,3.8739385724
 GCore=-0.0000875022,1.4001425905,5.0077742521
 ****
 O       
 PQN=2,2 NValence=6 F0ss=0.5539165357 F0sp=0.5315959624 F0pp=0.4958708974 F2pp=0.2381850701
 G1sp=0.4343770262
 ZetaOverlap=3.1080320000,2.5579943270
 U=-3.5951865036,-2.8748871058
 Beta=-1.0757546603,-1.0757546603 DDN=0,1,0.4988896000 DDN=1,1,0.4852322000
 CoreKO=0.8822957477 KON=0,0,0,0.8822957477 KON=1,0,1,0.5019543089 KON=0,1,1,0.8822957477
 KON=2,1,1,0.5515584117 EISol=-11.6164441184 EHeat=0.0949133088 Alpha=2.3630729218
 DipHyp=0.9977217969
 GCore=0.0195117322,1.4001425905,1.6023328031
 GCore=0.0057489399,1.9601996266,2.7307884326
 ****
 
 Standard basis: VSTO-6G (5D, 7F)
 Ernie: Thresh=  0.10000D-02 Tol=  0.10000D-05 Strict=F.
  NNHCO=     0 NNPyr=     0 NCTC=     0               EPep=         0.000000000
    EC=        67.335165595  ECS=         1.584433093   EG=         0.318726601
   EHC=         0.000000000  EAt=       -31.051283842  AtH=         1.516354808
 EPDDG=         0.000000000  ECC=        69.238325289 EAtT=        32.567638650
 There are    24 symmetry adapted cartesian basis functions of A   symmetry.
 There are    24 symmetry adapted basis functions of A   symmetry.
    24 basis functions,   144 primitive gaussians,    24 cartesian basis functions
    13 alpha electrons       13 beta electrons
       nuclear repulsion energy       101.8059639391 Hartrees.
 IExCor=    0 DFT=F Ex=HF Corr=None ExCW=0 ScaHFX=  1.000000
 ScaDFX=  1.000000  1.000000  1.000000  1.000000 ScalE2=  1.000000  1.000000
 IRadAn=      0 IRanWt=     -1 IRanGd=            0 ICorTp=0 IEmpDi=  4
 Integral buffers will be    131072 words long.
 Regular integral format.
 Two-electron integral symmetry is turned off.
 Leave Link  301 at Sat Mar 12 18:38:38 2016, MaxMem=    33554432 cpu:         0.0
 (Enter /opt/g09/g09/l302.exe)
 Do NDO integrals.
 NPDir=0 NMtPBC=     1 NCelOv=     1 NCel=       1 NClECP=     1 NCelD=      1
         NCelK=      1 NCelE2=     1 NClLst=     1 CellRange=     0.0.
 One-electron integrals computed using PRISM.
 NBasis=    24 RedAO= F EigKep=  0.00D+00  NBF=    24
 NBsUse=    24 1.00D-04 EigRej=  0.00D+00 NBFU=    24
 Leave Link  302 at Sat Mar 12 18:38:38 2016, MaxMem=    33554432 cpu:         0.0
 (Enter /opt/g09/g09/l303.exe)
 DipDrv:  MaxL=1.
 Leave Link  303 at Sat Mar 12 18:38:38 2016, MaxMem=    33554432 cpu:         0.0
 (Enter /opt/g09/g09/l401.exe)
 Initial guess from the checkpoint file:  "/opt/g09/scratch/Gau-16368.chk"
 B after Tr=     0.000000    0.000000    0.000000
         Rot=    0.999973    0.000008   -0.000002   -0.007354 Ang=   0.84 deg.
 Guess basis will be translated and rotated to current coordinates.
 JPrj=0 DoOrth=T DoCkMO=T.
 Leave Link  401 at Sat Mar 12 18:38:38 2016, MaxMem=    33554432 cpu:         0.0
 (Enter /opt/g09/g09/l502.exe)
 Closed shell SCF:
 Using DIIS extrapolation, IDIIS=  1040.
 Overlap will be assumed to be unity.
 Two-electron integral symmetry not used.
 Keep J ints in memory in canonical form, NReq=888082.
 IVT=       79475 IEndB=       79475 NGot=    33554432 MDV=    33473473
 LenX=    33473473 LenY=    33472456
 Requested convergence on RMS density matrix=1.00D-08 within 128 cycles.
 Requested convergence on MAX density matrix=1.00D-06.
 Requested convergence on             energy=1.00D-06.
 No special actions if energy rises.
 FoFCou: FMM=F IPFlag=           0 FMFlag=           0 FMFlg1=           0
         NFxFlg=           0 DoJE=F BraDBF=F KetDBF=F FulRan=T
         wScrn=  0.000000 ICntrl=     600 IOpCl=  2 I1Cent=           0 NGrid=           0
         NMat0=    1 NMatS0=     54 NMatT0=    0 NMatD0=    1 NMtDS0=    0 NMtDT0=    0
 Symmetry not used in FoFCou.

 Cycle   1  Pass 1  IDiag  1:
 E=-0.268162295178200    
 DIIS: error= 1.47D-03 at cycle   1 NSaved=   1.
 NSaved= 1 IEnMin= 1 EnMin=-0.268162295178200     IErMin= 1 ErrMin= 1.47D-03
 ErrMax= 1.47D-03  0.00D+00 EMaxC= 1.00D-01 BMatC= 1.52D-04 BMatP= 1.52D-04
 IDIUse=3 WtCom= 9.85D-01 WtEn= 1.47D-02
 Coeff-Com:  0.100D+01
 Coeff-En:   0.100D+01
 Coeff:      0.100D+01
 GapD=    2.000 DampG=2.000 DampE=1.000 DampFc=2.0000 IDamp=-1.
 RMSDP=7.08D-04 MaxDP=3.81D-03              OVMax= 0.00D+00

 Cycle   2  Pass 1  IDiag  3:
 E=-0.268522290701426     Delta-E=       -0.000359995523 Rises=F Damp=F
 DIIS: error= 4.18D-04 at cycle   2 NSaved=   2.
 NSaved= 2 IEnMin= 2 EnMin=-0.268522290701426     IErMin= 2 ErrMin= 4.18D-04
 ErrMax= 4.18D-04  0.00D+00 EMaxC= 1.00D-01 BMatC= 1.06D-05 BMatP= 1.52D-04
 IDIUse=3 WtCom= 9.96D-01 WtEn= 4.18D-03
 Coeff-Com: -0.311D+00 0.131D+01
 Coeff-En:   0.000D+00 0.100D+01
 Coeff:     -0.309D+00 0.131D+01
 Gap=     0.382 Goal=   None    Shift=    0.000
 RMSDP=2.97D-04 MaxDP=1.47D-03 DE=-3.60D-04 OVMax= 1.65D-03

 Cycle   3  Pass 1  IDiag  3:
 E=-0.268558167840808     Delta-E=       -0.000035877139 Rises=F Damp=F
 DIIS: error= 8.57D-05 at cycle   3 NSaved=   3.
 NSaved= 3 IEnMin= 3 EnMin=-0.268558167840808     IErMin= 3 ErrMin= 8.57D-05
 ErrMax= 8.57D-05  0.00D+00 EMaxC= 1.00D-01 BMatC= 3.19D-07 BMatP= 1.06D-05
 IDIUse=1 WtCom= 1.00D+00 WtEn= 0.00D+00
 Coeff-Com:  0.101D+00-0.499D+00 0.140D+01
 Coeff:      0.101D+00-0.499D+00 0.140D+01
 Gap=     0.382 Goal=   None    Shift=    0.000
 RMSDP=8.46D-05 MaxDP=5.39D-04 DE=-3.59D-05 OVMax= 7.01D-04

 Cycle   4  Pass 1  IDiag  3:
 E=-0.268560123667854     Delta-E=       -0.000001955827 Rises=F Damp=F
 DIIS: error= 3.17D-05 at cycle   4 NSaved=   4.
 NSaved= 4 IEnMin= 4 EnMin=-0.268560123667854     IErMin= 4 ErrMin= 3.17D-05
 ErrMax= 3.17D-05  0.00D+00 EMaxC= 1.00D-01 BMatC= 2.87D-08 BMatP= 3.19D-07
 IDIUse=1 WtCom= 1.00D+00 WtEn= 0.00D+00
 Coeff-Com: -0.105D-01 0.656D-01-0.394D+00 0.134D+01
 Coeff:     -0.105D-01 0.656D-01-0.394D+00 0.134D+01
 Gap=     0.382 Goal=   None    Shift=    0.000
 RMSDP=3.01D-05 MaxDP=2.43D-04 DE=-1.96D-06 OVMax= 2.52D-04

 Cycle   5  Pass 1  IDiag  3:
 E=-0.268560346010290     Delta-E=       -0.000000222342 Rises=F Damp=F
 DIIS: error= 1.06D-05 at cycle   5 NSaved=   5.
 NSaved= 5 IEnMin= 5 EnMin=-0.268560346010290     IErMin= 5 ErrMin= 1.06D-05
 ErrMax= 1.06D-05  0.00D+00 EMaxC= 1.00D-01 BMatC= 3.87D-09 BMatP= 2.87D-08
 IDIUse=1 WtCom= 1.00D+00 WtEn= 0.00D+00
 Coeff-Com: -0.110D-01 0.489D-01-0.534D-01-0.515D+00 0.153D+01
 Coeff:     -0.110D-01 0.489D-01-0.534D-01-0.515D+00 0.153D+01
 Gap=     0.382 Goal=   None    Shift=    0.000
 RMSDP=1.54D-05 MaxDP=1.19D-04 DE=-2.22D-07 OVMax= 1.57D-04

 Cycle   6  Pass 1  IDiag  3:
 E=-0.268560381202704     Delta-E=       -0.000000035192 Rises=F Damp=F
 DIIS: error= 2.23D-06 at cycle   6 NSaved=   6.
 NSaved= 6 IEnMin= 6 EnMin=-0.268560381202704     IErMin= 6 ErrMin= 2.23D-06
 ErrMax= 2.23D-06  0.00D+00 EMaxC= 1.00D-01 BMatC= 1.51D-10 BMatP= 3.87D-09
 IDIUse=1 WtCom= 1.00D+00 WtEn= 0.00D+00
 Coeff-Com:  0.612D-02-0.284D-01 0.516D-01 0.156D+00-0.693D+00 0.151D+01
 Coeff:      0.612D-02-0.284D-01 0.516D-01 0.156D+00-0.693D+00 0.151D+01
 Gap=     0.382 Goal=   None    Shift=    0.000
 RMSDP=2.68D-06 MaxDP=2.02D-05 DE=-3.52D-08 OVMax= 2.71D-05

 Cycle   7  Pass 1  IDiag  3:
 E=-0.268560382360519     Delta-E=       -0.000000001158 Rises=F Damp=F
 DIIS: error= 4.56D-07 at cycle   7 NSaved=   7.
 NSaved= 7 IEnMin= 7 EnMin=-0.268560382360519     IErMin= 7 ErrMin= 4.56D-07
 ErrMax= 4.56D-07  0.00D+00 EMaxC= 1.00D-01 BMatC= 5.92D-12 BMatP= 1.51D-10
 IDIUse=1 WtCom= 1.00D+00 WtEn= 0.00D+00
 Coeff-Com: -0.216D-02 0.101D-01-0.196D-01-0.465D-01 0.235D+00-0.649D+00
 Coeff-Com:  0.147D+01
 Coeff:     -0.216D-02 0.101D-01-0.196D-01-0.465D-01 0.235D+00-0.649D+00
 Coeff:      0.147D+01
 Gap=     0.382 Goal=   None    Shift=    0.000
 RMSDP=4.79D-07 MaxDP=3.90D-06 DE=-1.16D-09 OVMax= 5.02D-06

 Cycle   8  Pass 1  IDiag  3:
 E=-0.268560382403521     Delta-E=       -0.000000000043 Rises=F Damp=F
 DIIS: error= 1.05D-07 at cycle   8 NSaved=   8.
 NSaved= 8 IEnMin= 8 EnMin=-0.268560382403521     IErMin= 8 ErrMin= 1.05D-07
 ErrMax= 1.05D-07  0.00D+00 EMaxC= 1.00D-01 BMatC= 2.82D-13 BMatP= 5.92D-12
 IDIUse=1 WtCom= 1.00D+00 WtEn= 0.00D+00
 Coeff-Com:  0.874D-03-0.410D-02 0.812D-02 0.177D-01-0.933D-01 0.267D+00
 Coeff-Com: -0.726D+00 0.153D+01
 Coeff:      0.874D-03-0.410D-02 0.812D-02 0.177D-01-0.933D-01 0.267D+00
 Coeff:     -0.726D+00 0.153D+01
 Gap=     0.382 Goal=   None    Shift=    0.000
 RMSDP=1.10D-07 MaxDP=9.04D-07 DE=-4.30D-11 OVMax= 1.09D-06

 Cycle   9  Pass 1  IDiag  3:
 E=-0.268560382405653     Delta-E=       -0.000000000002 Rises=F Damp=F
 DIIS: error= 2.07D-08 at cycle   9 NSaved=   9.
 NSaved= 9 IEnMin= 9 EnMin=-0.268560382405653     IErMin= 9 ErrMin= 2.07D-08
 ErrMax= 2.07D-08  0.00D+00 EMaxC= 1.00D-01 BMatC= 1.76D-14 BMatP= 2.82D-13
 IDIUse=1 WtCom= 1.00D+00 WtEn= 0.00D+00
 Coeff-Com: -0.339D-03 0.160D-02-0.319D-02-0.669D-02 0.363D-01-0.105D+00
 Coeff-Com:  0.301D+00-0.785D+00 0.156D+01
 Coeff:     -0.339D-03 0.160D-02-0.319D-02-0.669D-02 0.363D-01-0.105D+00
 Coeff:      0.301D+00-0.785D+00 0.156D+01
 Gap=     0.382 Goal=   None    Shift=    0.000
 RMSDP=2.90D-08 MaxDP=2.45D-07 DE=-2.13D-12 OVMax= 2.70D-07

 Cycle  10  Pass 1  IDiag  3:
 E=-0.268560382405710     Delta-E=        0.000000000000 Rises=F Damp=F
 DIIS: error= 5.57D-09 at cycle  10 NSaved=  10.
 NSaved=10 IEnMin=10 EnMin=-0.268560382405710     IErMin=10 ErrMin= 5.57D-09
 ErrMax= 5.57D-09  0.00D+00 EMaxC= 1.00D-01 BMatC= 1.28D-15 BMatP= 1.76D-14
 IDIUse=1 WtCom= 1.00D+00 WtEn= 0.00D+00
 Coeff-Com:  0.934D-04-0.443D-03 0.898D-03 0.175D-02-0.987D-02 0.288D-01
 Coeff-Com: -0.832D-01 0.239D+00-0.717D+00 0.154D+01
 Coeff:      0.934D-04-0.443D-03 0.898D-03 0.175D-02-0.987D-02 0.288D-01
 Coeff:     -0.832D-01 0.239D+00-0.717D+00 0.154D+01
 Gap=     0.382 Goal=   None    Shift=    0.000
 RMSDP=8.48D-09 MaxDP=7.55D-08 DE=-5.68D-14 OVMax= 8.03D-08

 Cycle  11  Pass 2  IDiag  1:
 SCF Done:  E(RAM1) = -0.268560382406     A.U. after   11 cycles
            NFock= 10  Conv=0.85D-08     -V/T= 0.9839
 KE=-1.665583144741D+01 PE=-1.685323416596D+02 EE= 8.311364878558D+01
 Leave Link  502 at Sat Mar 12 18:38:38 2016, MaxMem=    33554432 cpu:         0.0
 (Enter /opt/g09/g09/l701.exe)
 Compute integral first derivatives.
 ... and contract with generalized density number  0.
 Leave Link  701 at Sat Mar 12 18:38:38 2016, MaxMem=    33554432 cpu:         0.0
 (Enter /opt/g09/g09/l702.exe)
 L702 exits ... SP integral derivatives will be done elsewhere.
 Leave Link  702 at Sat Mar 12 18:38:38 2016, MaxMem=    33554432 cpu:         0.0
 (Enter /opt/g09/g09/l703.exe)
 Compute integral first derivatives, UseDBF=F ICtDFT=           0.
 Integral derivatives from FoFJK, PRISM(SPDF).
 Calling FoFJK, ICntrl=      2127 FMM=F ISym2X=0 I1Cent= 0 IOpClX= 0 NMat=1 NMatS=1 NMatT=0.
 FoFJK:  IHMeth= 8 ICntrl=    2127 DoSepK=F KAlg= 0 I1Cent=   0 FoldK=F
 IRaf=         0 NMat=   1 IRICut=       1 DoRegI=T DoRafI=F ISym2E= 0.
 FoFCou: FMM=F IPFlag=           0 FMFlag=      100000 FMFlg1=         800
         NFxFlg=           0 DoJE=F BraDBF=F KetDBF=F FulRan=T
         wScrn=  0.000000 ICntrl=    2127 IOpCl=  0 I1Cent=           0 NGrid=           0
         NMat0=    1 NMatS0=      1 NMatT0=    0 NMatD0=    1 NMtDS0=    0 NMtDT0=    0
 Symmetry not used in FoFCou.
 Leave Link  703 at Sat Mar 12 18:38:38 2016, MaxMem=    33554432 cpu:         0.0
 (Enter /opt/g09/g09/l716.exe)
 Dipole        =-1.00101781D-02 2.95056950D-01 3.82059270D-05
 ***** Axes restored to original set *****
 -------------------------------------------------------------------
 Center     Atomic                   Forces (Hartrees/Bohr)
 Number     Number              X              Y              Z
 -------------------------------------------------------------------
      1        6          -0.002200087   -0.000560960   -0.000212824
      2        6           0.002707845   -0.005472443    0.000470228
      3        8           0.000171025    0.004135182   -0.000051252
      4        6           0.000919601   -0.002101450    0.000592611
      5        6          -0.000240386    0.002470584   -0.000907481
      6        1          -0.000777982    0.000473551    0.000326175
      7        1          -0.000245506   -0.000144175   -0.000162492
      8        1          -0.001800038    0.001169192   -0.000267069
      9        1           0.001465528    0.000030519    0.000212103
 -------------------------------------------------------------------
 Cartesian Forces:  Max     0.005472443 RMS     0.001725052
 Leave Link  716 at Sat Mar 12 18:38:38 2016, MaxMem=    33554432 cpu:         0.0
 (Enter /opt/g09/g09/l103.exe)

 GradGradGradGradGradGradGradGradGradGradGradGradGradGradGradGradGradGrad
 Berny optimization.
 Using GEDIIS/GDIIS optimizer.
 FormGI is forming the generalized inverse of G from B-inverse, IUseBI=4.
 Internal  Forces:  Max     0.003205684 RMS     0.001068513
 Search for a local minimum.
 Step number   3 out of a maximum of   48
 All quantities printed in internal units (Hartrees-Bohrs-Radians)
 RMS Force = .10685D-02 SwitMx=.10000D-02 MixMth= 1
 Mixed Optimization -- RFO/linear search
 Update second derivatives using D2CorX and points    1    2    3
 DE= -2.42D-03 DEPred=-2.22D-03 R= 1.09D+00
 TightC=F SS=  1.41D+00  RLast= 8.75D-02 DXNew= 8.4853D-01 2.6243D-01
 Trust test= 1.09D+00 RLast= 8.75D-02 DXMaxT set to 5.05D-01
 ITU=  1  1  0
 Use linear search instead of GDIIS.
     Eigenvalues ---    0.01757   0.01960   0.02155   0.02292   0.02350
     Eigenvalues ---    0.02744   0.14946   0.15999   0.16004   0.16020
     Eigenvalues ---    0.21740   0.22870   0.36820   0.36926   0.37700
     Eigenvalues ---    0.38213   0.39360   0.42829   0.48370   0.51160
     Eigenvalues ---    0.75051
 RFO step:  Lambda=-1.79894929D-04 EMin= 1.75679857D-02
 Quartic linear search produced a step of  0.01899.
 Iteration  1 RMS(Cart)=  0.00644944 RMS(Int)=  0.00005392
 Iteration  2 RMS(Cart)=  0.00004677 RMS(Int)=  0.00001943
 Iteration  3 RMS(Cart)=  0.00000000 RMS(Int)=  0.00001943
 ITry= 1 IFail=0 DXMaxC= 2.66D-02 DCOld= 1.00D+10 DXMaxT= 5.05D-01 DXLimC= 3.00D+00 Rises=F
 Variable       Old X    -DE/DX   Delta X   Delta X   Delta X     New X
                                 (Linear)    (Quad)   (Total)
    R1        2.62491   0.00061  -0.00089   0.00105   0.00016   2.62507
    R2        2.77324   0.00237  -0.00079   0.00582   0.00503   2.77827
    R3        2.07610   0.00116   0.00002   0.00365   0.00367   2.07977
    R4        2.67279   0.00256  -0.00029   0.00578   0.00549   2.67828
    R5        2.07974  -0.00018  -0.00010  -0.00024  -0.00034   2.07940
    R6        2.69216  -0.00204  -0.00065  -0.00541  -0.00607   2.68609
    R7        2.62636  -0.00193  -0.00063  -0.00381  -0.00444   2.62192
    R8        2.07778   0.00000  -0.00004   0.00056   0.00052   2.07830
    R9        2.08078  -0.00036  -0.00013  -0.00080  -0.00093   2.07985
    A1        1.85988   0.00022   0.00017   0.00296   0.00313   1.86302
    A2        2.21882   0.00081   0.00002   0.00471   0.00473   2.22355
    A3        2.20446  -0.00104  -0.00019  -0.00766  -0.00785   2.19661
    A4        1.92923  -0.00196  -0.00010  -0.00711  -0.00721   1.92202
    A5        2.35739   0.00321   0.00036   0.01844   0.01879   2.37618
    A6        1.99652  -0.00125  -0.00026  -0.01129  -0.01155   1.98497
    A7        1.85051   0.00115  -0.00006   0.00467   0.00461   1.85512
    A8        1.91924   0.00069   0.00001   0.00134   0.00134   1.92059
    A9        1.97664  -0.00064  -0.00013  -0.00280  -0.00293   1.97371
   A10        2.38727  -0.00005   0.00012   0.00149   0.00161   2.38888
   A11        1.86590  -0.00011  -0.00002  -0.00184  -0.00188   1.86402
   A12        2.18428   0.00092   0.00014   0.00675   0.00687   2.19115
   A13        2.23294  -0.00081  -0.00012  -0.00478  -0.00493   2.22801
    D1        0.00015  -0.00005   0.00003  -0.00212  -0.00210  -0.00195
    D2       -3.13120  -0.00014  -0.00003  -0.00645  -0.00649  -3.13769
    D3       -3.13562  -0.00008  -0.00008  -0.00424  -0.00434  -3.13996
    D4        0.01623  -0.00018  -0.00013  -0.00857  -0.00873   0.00749
    D5       -0.00244   0.00012  -0.00003   0.00531   0.00528   0.00284
    D6       -3.13231  -0.00011  -0.00013  -0.00527  -0.00544  -3.13775
    D7        3.13339   0.00016   0.00008   0.00746   0.00753   3.14091
    D8        0.00352  -0.00007  -0.00002  -0.00312  -0.00319   0.00033
    D9        0.00214  -0.00004  -0.00002  -0.00179  -0.00179   0.00035
   D10        3.13578   0.00006   0.00003   0.00176   0.00173   3.13751
   D11       -0.00373   0.00012   0.00000   0.00526   0.00526   0.00153
   D12       -3.13781   0.00001   0.00003   0.00128   0.00131  -3.13650
   D13        0.00384  -0.00015   0.00002  -0.00656  -0.00653  -0.00269
   D14        3.13327   0.00011   0.00013   0.00451   0.00459   3.13787
[...]
 Coeff-Com: -0.907D+00 0.161D+01
 Coeff:      0.212D-02-0.769D-02 0.140D-01 0.145D-01-0.139D+00 0.413D+00
 Coeff:     -0.907D+00 0.161D+01
 Gap=     0.383 Goal=   None    Shift=    0.000
 RMSDP=1.13D-08 MaxDP=5.13D-08 DE=-4.55D-13 OVMax= 1.31D-07

 Cycle   9  Pass 1  IDiag  3:
 E=-0.268690265635669     Delta-E=        0.000000000000 Rises=F Damp=F
 DIIS: error= 1.61D-09 at cycle   9 NSaved=   9.
 NSaved= 9 IEnMin= 9 EnMin=-0.268690265635669     IErMin= 9 ErrMin= 1.61D-09
 ErrMax= 1.61D-09  0.00D+00 EMaxC= 1.00D-01 BMatC= 1.20D-16 BMatP= 2.82D-15
 IDIUse=1 WtCom= 1.00D+00 WtEn= 0.00D+00
 Coeff-Com: -0.645D-03 0.234D-02-0.427D-02-0.427D-02 0.419D-01-0.125D+00
 Coeff-Com:  0.285D+00-0.641D+00 0.145D+01
 Coeff:     -0.645D-03 0.234D-02-0.427D-02-0.427D-02 0.419D-01-0.125D+00
 Coeff:      0.285D+00-0.641D+00 0.145D+01
 Gap=     0.383 Goal=   None    Shift=    0.000
 RMSDP=2.21D-09 MaxDP=1.25D-08 DE=-2.56D-13 OVMax= 2.60D-08

 Cycle  10  Pass 2  IDiag  1:
 SCF Done:  E(RAM1) = -0.268690265636     A.U. after   10 cycles
            NFock=  9  Conv=0.22D-08     -V/T= 0.9839
 KE=-1.665368344585D+01 PE=-1.685200045271D+02 EE= 8.310975644215D+01
 Leave Link  502 at Sat Mar 12 18:38:38 2016, MaxMem=    33554432 cpu:         0.0
 (Enter /opt/g09/g09/l701.exe)
 Compute integral first derivatives.
 ... and contract with generalized density number  0.
 Leave Link  701 at Sat Mar 12 18:38:38 2016, MaxMem=    33554432 cpu:         0.0
 (Enter /opt/g09/g09/l702.exe)
 L702 exits ... SP integral derivatives will be done elsewhere.
 Leave Link  702 at Sat Mar 12 18:38:38 2016, MaxMem=    33554432 cpu:         0.0
 (Enter /opt/g09/g09/l703.exe)
 Compute integral first derivatives, UseDBF=F ICtDFT=           0.
 Integral derivatives from FoFJK, PRISM(SPDF).
 Calling FoFJK, ICntrl=      2127 FMM=F ISym2X=0 I1Cent= 0 IOpClX= 0 NMat=1 NMatS=1 NMatT=0.
 FoFJK:  IHMeth= 8 ICntrl=    2127 DoSepK=F KAlg= 0 I1Cent=   0 FoldK=F
 IRaf=         0 NMat=   1 IRICut=       1 DoRegI=T DoRafI=F ISym2E= 0.
 FoFCou: FMM=F IPFlag=           0 FMFlag=      100000 FMFlg1=         800
         NFxFlg=           0 DoJE=F BraDBF=F KetDBF=F FulRan=T
         wScrn=  0.000000 ICntrl=    2127 IOpCl=  0 I1Cent=           0 NGrid=           0
         NMat0=    1 NMatS0=      1 NMatT0=    0 NMatD0=    1 NMtDS0=    0 NMtDT0=    0
 Symmetry not used in FoFCou.
 Leave Link  703 at Sat Mar 12 18:38:38 2016, MaxMem=    33554432 cpu:         0.0
 (Enter /opt/g09/g09/l716.exe)
 Dipole        = 1.31439460D-04 2.93400488D-01-1.56428169D-04
 ***** Axes restored to original set *****
 -------------------------------------------------------------------
 Center     Atomic                   Forces (Hartrees/Bohr)
 Number     Number              X              Y              Z
 -------------------------------------------------------------------
      1        6           0.000053373    0.000007512    0.000016328
      2        6          -0.000041761    0.000099842   -0.000030238
      3        8          -0.000018133    0.000005520    0.000032013
      4        6          -0.000042278   -0.000118005    0.000011776
      5        6          -0.000045571    0.000064577   -0.000024807
      6        1           0.000030138   -0.000034239    0.000013642
      7        1           0.000038903   -0.000016473   -0.000017724
      8        1           0.000015102    0.000000435   -0.000000234
      9        1           0.000010226   -0.000009168   -0.000000755
 -------------------------------------------------------------------
 Cartesian Forces:  Max     0.000118005 RMS     0.000040679
 Leave Link  716 at Sat Mar 12 18:38:38 2016, MaxMem=    33554432 cpu:         0.0
 (Enter /opt/g09/g09/l103.exe)

 GradGradGradGradGradGradGradGradGradGradGradGradGradGradGradGradGradGrad
 Berny optimization.
 Using GEDIIS/GDIIS optimizer.
 FormGI is forming the generalized inverse of G from B-inverse, IUseBI=4.
 Internal  Forces:  Max     0.000057351 RMS     0.000027404
 Search for a local minimum.
 Step number   7 out of a maximum of   48
 All quantities printed in internal units (Hartrees-Bohrs-Radians)
 RMS Force = .27404D-04 SwitMx=.10000D-02 MixMth= 2
 Mixed Optimization -- En-DIIS/RFO-DIIS
 Swapping is turned off.
 Update second derivatives using D2CorX and points    1    2    3    4    5
                                                      6    7
 DE= -1.51D-06 DEPred=-1.50D-06 R= 1.01D+00
 TightC=F SS=  1.41D+00  RLast= 7.45D-03 DXNew= 8.4853D-01 2.2364D-02
 Trust test= 1.01D+00 RLast= 7.45D-03 DXMaxT set to 5.05D-01
 ITU=  1  0  1  1  1  1  0
     Eigenvalues ---    0.01768   0.02064   0.02225   0.02354   0.02572
     Eigenvalues ---    0.04899   0.10162   0.13605   0.16006   0.16127
     Eigenvalues ---    0.22139   0.26459   0.36957   0.37246   0.37720
     Eigenvalues ---    0.39213   0.39916   0.43124   0.46598   0.54948
     Eigenvalues ---    0.75725
 En-DIIS/RFO-DIIS IScMMF=        0 using points:     7    6    5    4
 RFO step:  Lambda=-6.08028596D-08.
 NNeg= 0 NP= 4 Switch=  2.50D-03 Rises=F DC=  1.78D-05 SmlDif=  1.00D-05
 RMS Error=  0.6310383170D-04 NUsed= 4 EDIIS=F
 DidBck=F Rises=F RFO-DIIS coefs:    0.91501    0.03620    0.03618    0.01260
 Iteration  1 RMS(Cart)=  0.00016925 RMS(Int)=  0.00000014
 Iteration  2 RMS(Cart)=  0.00000004 RMS(Int)=  0.00000013
 ITry= 1 IFail=0 DXMaxC= 5.53D-04 DCOld= 1.00D+10 DXMaxT= 5.05D-01 DXLimC= 3.00D+00 Rises=F
 Variable       Old X    -DE/DX   Delta X   Delta X   Delta X     New X
                                 (Linear)    (Quad)   (Total)
    R1        2.62286   0.00002   0.00004   0.00007   0.00010   2.62296
    R2        2.77924  -0.00004  -0.00003  -0.00001  -0.00004   2.77920
    R3        2.07941   0.00001   0.00004  -0.00003   0.00001   2.07942
    R4        2.68445  -0.00004  -0.00009  -0.00003  -0.00011   2.68433
    R5        2.07885  -0.00001  -0.00001   0.00001   0.00000   2.07885
    R6        2.68449  -0.00005  -0.00001  -0.00005  -0.00006   2.68443
    R7        2.62294  -0.00001  -0.00003   0.00002  -0.00001   2.62293
    R8        2.07892  -0.00003   0.00000  -0.00011  -0.00011   2.07881
    R9        2.07943   0.00000   0.00000   0.00002   0.00002   2.07945
    A1        1.86384  -0.00003  -0.00002  -0.00009  -0.00012   1.86372
    A2        2.22825   0.00001  -0.00004   0.00004   0.00000   2.22825
    A3        2.19110   0.00002   0.00007   0.00005   0.00012   2.19122
    A4        1.92150   0.00005   0.00002   0.00017   0.00019   1.92169
    A5        2.38709  -0.00004  -0.00011  -0.00019  -0.00029   2.38680
    A6        1.97459  -0.00001   0.00009   0.00002   0.00011   1.97469
    A7        1.85416  -0.00006  -0.00001  -0.00019  -0.00020   1.85396
    A8        1.92148   0.00006   0.00002   0.00017   0.00019   1.92167
    A9        1.97445   0.00000  -0.00010   0.00022   0.00012   1.97457
   A10        2.38725  -0.00006   0.00008  -0.00039  -0.00031   2.38694
   A11        1.86379  -0.00002  -0.00001  -0.00006  -0.00006   1.86373
   A12        2.19166  -0.00004   0.00005  -0.00035  -0.00030   2.19136
   A13        2.22773   0.00006  -0.00005   0.00041   0.00036   2.22809
    D1        0.00027  -0.00001  -0.00004  -0.00029  -0.00032  -0.00005
    D2        3.14156   0.00000   0.00005   0.00002   0.00007  -3.14156
    D3       -3.14153  -0.00001   0.00003  -0.00024  -0.00021   3.14144
    D4       -0.00024   0.00000   0.00011   0.00006   0.00018  -0.00007
    D5       -0.00012   0.00000   0.00000   0.00006   0.00006  -0.00006
    D6       -3.14132   0.00000   0.00006  -0.00010  -0.00004  -3.14135
    D7       -3.14151   0.00000  -0.00006   0.00001  -0.00004  -3.14155
    D8        0.00048   0.00000   0.00000  -0.00014  -0.00014   0.00034
    D9       -0.00032   0.00001   0.00005   0.00040   0.00045   0.00013
   D10        3.14150   0.00001  -0.00001   0.00017   0.00016  -3.14152
   D11        0.00024  -0.00001  -0.00005  -0.00036  -0.00041  -0.00017
   D12       -3.14091  -0.00001   0.00006  -0.00050  -0.00044  -3.14135
   D13       -0.00008   0.00000   0.00003   0.00019   0.00022   0.00014
   D14        3.14111   0.00001  -0.00003   0.00035   0.00032   3.14143
   D15        3.14092   0.00001  -0.00012   0.00038   0.00025   3.14118
   D16       -0.00107   0.00001  -0.00018   0.00054   0.00036  -0.00072
         Item               Value     Threshold  Converged?
 Maximum Force            0.000057     0.000450     YES
 RMS     Force            0.000027     0.000300     YES
 Maximum Displacement     0.000553     0.001800     YES
 RMS     Displacement     0.000169     0.001200     YES
 Predicted change in Energy=-7.545599D-08
 Optimization completed.
    -- Stationary point found.
                           ----------------------------
                           !   Optimized Parameters   !
                           ! (Angstroms and Degrees)  !
 --------------------------                            --------------------------
 ! Name  Definition              Value          Derivative Info.                !
 --------------------------------------------------------------------------------
 ! R1    R(1,2)                  1.388          -DE/DX =    0.0                 !
 ! R2    R(1,5)                  1.4707         -DE/DX =    0.0                 !
 ! R3    R(1,9)                  1.1004         -DE/DX =    0.0                 !
 ! R4    R(2,3)                  1.4205         -DE/DX =    0.0                 !
 ! R5    R(2,8)                  1.1001         -DE/DX =    0.0                 !
 ! R6    R(3,4)                  1.4206         -DE/DX =    0.0                 !
 ! R7    R(4,5)                  1.388          -DE/DX =    0.0                 !
 ! R8    R(4,7)                  1.1001         -DE/DX =    0.0                 !
 ! R9    R(5,6)                  1.1004         -DE/DX =    0.0                 !
 ! A1    A(2,1,5)              106.79           -DE/DX =    0.0                 !
 ! A2    A(2,1,9)              127.6692         -DE/DX =    0.0                 !
 ! A3    A(5,1,9)              125.5408         -DE/DX =    0.0                 !
 ! A4    A(1,2,3)              110.0941         -DE/DX =    0.0                 !
 ! A5    A(1,2,8)              136.7703         -DE/DX =    0.0                 !
 ! A6    A(3,2,8)              113.1356         -DE/DX =    0.0                 !
 ! A7    A(2,3,4)              106.2356         -DE/DX =   -0.0001              !
 ! A8    A(3,4,5)              110.0928         -DE/DX =    0.0001              !
 ! A9    A(3,4,7)              113.1275         -DE/DX =    0.0                 !
 ! A10   A(5,4,7)              136.7796         -DE/DX =   -0.0001              !
 ! A11   A(1,5,4)              106.7875         -DE/DX =    0.0                 !
 ! A12   A(1,5,6)              125.573          -DE/DX =    0.0                 !
 ! A13   A(4,5,6)              127.6395         -DE/DX =    0.0001              !
 ! D1    D(5,1,2,3)              0.0157         -DE/DX =    0.0                 !
 ! D2    D(5,1,2,8)           -180.0018         -DE/DX =    0.0                 !
 ! D3    D(9,1,2,3)            180.0035         -DE/DX =    0.0                 !
 ! D4    D(9,1,2,8)             -0.0139         -DE/DX =    0.0                 !
 ! D5    D(2,1,5,4)             -0.0068         -DE/DX =    0.0                 !
 ! D6    D(2,1,5,6)           -179.9842         -DE/DX =    0.0                 !
 ! D7    D(9,1,5,4)           -179.995          -DE/DX =    0.0                 !
 ! D8    D(9,1,5,6)              0.0277         -DE/DX =    0.0                 !
 ! D9    D(1,2,3,4)             -0.0183         -DE/DX =    0.0                 !
 ! D10   D(8,2,3,4)           -180.0054         -DE/DX =    0.0                 !
 ! D11   D(2,3,4,5)              0.0138         -DE/DX =    0.0                 !
 ! D12   D(2,3,4,7)           -179.961          -DE/DX =    0.0                 !
 ! D13   D(3,4,5,1)             -0.0045         -DE/DX =    0.0                 !
 ! D14   D(3,4,5,6)            179.9722         -DE/DX =    0.0                 !
 ! D15   D(7,4,5,1)            179.9617         -DE/DX =    0.0                 !
 ! D16   D(7,4,5,6)             -0.0616         -DE/DX =    0.0                 !
 --------------------------------------------------------------------------------
 Lowest energy point so far.  Saving SCF results.
 GradGradGradGradGradGradGradGradGradGradGradGradGradGradGradGradGradGrad

 Largest change from initial coordinates is atom    6       0.054 Angstoms.
 Leave Link  103 at Sat Mar 12 18:38:38 2016, MaxMem=    33554432 cpu:         0.0
 (Enter /opt/g09/g09/l202.exe)
                          Input orientation:                          
 ---------------------------------------------------------------------
 Center     Atomic      Atomic             Coordinates (Angstroms)
 Number     Number       Type             X           Y           Z
 ---------------------------------------------------------------------
      1          6           0        0.985641   -0.724117    0.002920
      2          6           0       -0.342319   -1.127775    0.004574
      3          8           0       -1.197263    0.006695    0.001564
      4          6           0       -0.347051    1.144741   -0.001630
      5          6           0        0.982619    0.746586   -0.000992
      6          1           0        1.876327    1.388557   -0.003338
      7          1           0       -0.898935    2.096413   -0.003483
      8          1           0       -0.890073   -2.081784    0.007329
      9          1           0        1.882329   -1.361903    0.004411
 ---------------------------------------------------------------------
                    Distance matrix (angstroms):
                    1          2          3          4          5
     1  C    0.000000
     2  C    1.387955   0.000000
     3  O    2.301990   1.420549   0.000000
     4  C    2.295369   2.272529   1.420570   0.000000
     5  C    1.470711   2.295369   2.302028   1.388002   0.000000
     6  H    2.292761   3.354754   3.369944   2.236707   1.100385
     7  H    3.392205   3.271891   2.110911   1.100117   2.315661
     8  H    2.315509   1.100080   2.110959   3.271914   3.392156
     9  H    1.100374   2.236935   3.370009   3.354615   2.292430
                    6          7          8          9
     6  H    0.000000
     7  H    2.864112   0.000000
     8  H    4.438057   4.178221   0.000000
     9  H    2.750477   4.437955   2.864342   0.000000
 Stoichiometry    C4H4O
 Framework group  C1[X(C4H4O)]
 Deg. of freedom    21
 Full point group                 C1      NOp   1
 RotChk:  IX=2 Diff= 1.92D-15
 Largest Abelian subgroup         C1      NOp   1
 Largest concise Abelian subgroup C1      NOp   1
                         Standard orientation:                         
 ---------------------------------------------------------------------
 Center     Atomic      Atomic             Coordinates (Angstroms)
 Number     Number       Type             X           Y           Z
 ---------------------------------------------------------------------
      1          6           0       -0.735172    0.982460    0.000023
      2          6           0       -1.136339   -0.346255   -0.000104
      3          8           0       -0.000262   -1.199068    0.000137
      4          6           0        1.136191   -0.346721   -0.000014
      5          6           0        0.735540    0.982199   -0.000021
      6          1           0        1.375836    1.877111    0.000301
      7          1           0        2.088898   -0.896818   -0.000539
      8          1           0       -2.089322   -0.895799   -0.000110
      9          1           0       -1.374642    1.877950   -0.000049
 ---------------------------------------------------------------------
 Rotational constants (GHZ):      8.9331369      8.7576897      4.4222717
 Leave Link  202 at Sat Mar 12 18:38:38 2016, MaxMem=    33554432 cpu:         0.0
 (Enter /opt/g09/g09/l601.exe)
 Copying SCF densities to generalized density rwf, IOpCl= 0 IROHF=0.

 **********************************************************************

            Population analysis using the SCF density.

 **********************************************************************

 Orbital symmetries:
       Occupied  (A) (A) (A) (A) (A) (A) (A) (A) (A) (A) (A) (A)
                 (A)
       Virtual   (A) (A) (A) (A) (A) (A) (A) (A) (A) (A) (A)
 The electronic state is 1-A.
 Alpha  occ. eigenvalues --   -1.50648  -1.21781  -1.07422  -0.82937  -0.81491
 Alpha  occ. eigenvalues --   -0.67501  -0.59209  -0.55165  -0.49481  -0.49140
 Alpha  occ. eigenvalues --   -0.48449  -0.40014  -0.34471
 Alpha virt. eigenvalues --    0.03825   0.07934   0.08762   0.11110   0.15073
 Alpha virt. eigenvalues --    0.15642   0.17531   0.17552   0.20529   0.22231
 Alpha virt. eigenvalues --    0.23436
          Condensed to atoms (all electrons):
               1          2          3          4          5          6
     1  C    4.192996   0.000000   0.000000   0.000000   0.000000   0.000000
     2  C    0.000000   4.104677   0.000000   0.000000   0.000000   0.000000
     3  O    0.000000   0.000000   6.130068   0.000000   0.000000   0.000000
     4  C    0.000000   0.000000   0.000000   4.104734   0.000000   0.000000
     5  C    0.000000   0.000000   0.000000   0.000000   4.193016   0.000000
     6  H    0.000000   0.000000   0.000000   0.000000   0.000000   0.832186
     7  H    0.000000   0.000000   0.000000   0.000000   0.000000   0.000000
     8  H    0.000000   0.000000   0.000000   0.000000   0.000000   0.000000
     9  H    0.000000   0.000000   0.000000   0.000000   0.000000   0.000000
               7          8          9
     1  C    0.000000   0.000000   0.000000
     2  C    0.000000   0.000000   0.000000
     3  O    0.000000   0.000000   0.000000
     4  C    0.000000   0.000000   0.000000
     5  C    0.000000   0.000000   0.000000
     6  H    0.000000   0.000000   0.000000
     7  H    0.805069   0.000000   0.000000
     8  H    0.000000   0.805070   0.000000
     9  H    0.000000   0.000000   0.832184
 Mulliken charges:
               1
     1  C   -0.192996
     2  C   -0.104677
     3  O   -0.130068
     4  C   -0.104734
     5  C   -0.193016
     6  H    0.167814
     7  H    0.194931
     8  H    0.194930
     9  H    0.167816
 Sum of Mulliken charges =   0.00000
 Mulliken charges with hydrogens summed into heavy atoms:
               1
     1  C   -0.025180
     2  C    0.090252
     3  O   -0.130068
     4  C    0.090197
     5  C   -0.025202
 Charge=              0.0000 electrons
 Dipole moment (field-independent basis, Debye):
    X=              0.0003    Y=              0.7457    Z=             -0.0004  Tot=              0.7457
 N-N= 1.017952412652D+02 E-N=-1.685200045245D+02  KE=-1.665368344585D+01
 Leave Link  601 at Sat Mar 12 18:38:38 2016, MaxMem=    33554432 cpu:         0.0
 (Enter /opt/g09/g09/l9999.exe)
 1\1\GINC-LINUX-CBNE\FOpt\RAM1\ZDO\C4H4O1\DUSTIN\12-Mar-2016\0\\#P AM1(
 Input,Print) opt\\hi\\0,1\C,0.9856411343,-0.7241172849,0.0029200823\C,
 -0.3423190792,-1.1277747213,0.0045740423\O,-1.1972631556,0.0066953926,
 0.0015635857\C,-0.3470506876,1.1447413197,-0.0016295515\C,0.9826191721
 ,0.7465858113,-0.0009923471\H,1.8763273608,1.3885565316,-0.0033382873\
 H,-0.8989347442,2.0964127452,-0.0034829236\H,-0.8900733275,-2.08178442
 06,0.0073286415\H,1.8823293269,-1.3619033737,0.0044107575\\Version=ES6
 4L-G09RevD.01\State=1-A\HF=-0.2686903\RMSD=2.206e-09\RMSF=4.068e-05\Di
 pole=0.2933998,0.0006824,0.0000573\PG=C01 [X(C4H4O1)]\\@


 IT IS IMPOSSIBLE TO MEDITATE ON TIME AND THE MYSTERY 
 OF NATURE WITHOUT AN OVERWHELMING EMOTION AT THE
 LIMITATIONS OF HUMAN INTELLIGENCE.

                                         -- ALFRED NORTH WHITEHEAD
 Job cpu time:       0 days  0 hours  0 minutes  1.1 seconds.
 File lengths (MBytes):  RWF=      5 Int=      0 D2E=      0 Chk=      2 Scr=      1
 Normal termination of Gaussian 09 at Sat Mar 12 18:38:38 2016.
