 Entering Gaussian System, Link 0=g09
 Input=best.com
 Output=best.log
 Initial command:
 /opt/g09/g09/l1.exe "/opt/g09/scratch/Gau-1873.inp" -scrdir="/opt/g09/scratch/"
 Entering Link 1 = /opt/g09/g09/l1.exe PID=      1874.
  
 Copyright (c) 1988,1990,1992,1993,1995,1998,2003,2009,2013,
            Gaussian, Inc.  All Rights Reserved.
  
 This is part of the Gaussian(R) 09 program.  It is based on
 the Gaussian(R) 03 system (copyright 2003, Gaussian, Inc.),
 the Gaussian(R) 98 system (copyright 1998, Gaussian, Inc.),
 the Gaussian(R) 94 system (copyright 1995, Gaussian, Inc.),
 the Gaussian 92(TM) system (copyright 1992, Gaussian, Inc.),
 the Gaussian 90(TM) system (copyright 1990, Gaussian, Inc.),
 the Gaussian 88(TM) system (copyright 1988, Gaussian, Inc.),
 the Gaussian 86(TM) system (copyright 1986, Carnegie Mellon
 University), and the Gaussian 82(TM) system (copyright 1983,
 Carnegie Mellon University). Gaussian is a federally registered
 trademark of Gaussian, Inc.
  
 This software contains proprietary and confidential information,
 including trade secrets, belonging to Gaussian, Inc.
  
 This software is provided under written license and may be
 used, copied, transmitted, or stored only in accord with that
 written license.
  
 The following legend is applicable only to US Government
 contracts under FAR:
  
                    RESTRICTED RIGHTS LEGEND
  
 Use, reproduction and disclosure by the US Government is
 subject to restrictions as set forth in subparagraphs (a)
 and (c) of the Commercial Computer Software - Restricted
 Rights clause in FAR 52.227-19.
  
 Gaussian, Inc.
 340 Quinnipiac St., Bldg. 40, Wallingford CT 06492
  
  
 ---------------------------------------------------------------
 Warning -- This program may not be used in any manner that
 competes with the business of Gaussian, Inc. or will provide
 assistance to any competitor of Gaussian, Inc.  The licensee
 of this program is prohibited from giving any competitor of
 Gaussian, Inc. access to this program.  By using this program,
 the user acknowledges that Gaussian, Inc. is engaged in the
 business of creating and licensing software in the field of
 computational chemistry and represents and warrants to the
 licensee that it is not a competitor of Gaussian, Inc. and that
 it will not use this program in any manner prohibited above.
 ---------------------------------------------------------------
  

 Cite this work as:
 Gaussian 09, Revision D.01,
 M. J. Frisch, G. W. Trucks, H. B. Schlegel, G. E. Scuseria, 
 M. A. Robb, J. R. Cheeseman, G. Scalmani, V. Barone, B. Mennucci, 
 G. A. Petersson, H. Nakatsuji, M. Caricato, X. Li, H. P. Hratchian, 
 A. F. Izmaylov, J. Bloino, G. Zheng, J. L. Sonnenberg, M. Hada, 
 M. Ehara, K. Toyota, R. Fukuda, J. Hasegawa, M. Ishida, T. Nakajima, 
 Y. Honda, O. Kitao, H. Nakai, T. Vreven, J. A. Montgomery, Jr., 
 J. E. Peralta, F. Ogliaro, M. Bearpark, J. J. Heyd, E. Brothers, 
 K. N. Kudin, V. N. Staroverov, T. Keith, R. Kobayashi, J. Normand, 
 K. Raghavachari, A. Rendell, J. C. Burant, S. S. Iyengar, J. Tomasi, 
 M. Cossi, N. Rega, J. M. Millam, M. Klene, J. E. Knox, J. B. Cross, 
 V. Bakken, C. Adamo, J. Jaramillo, R. Gomperts, R. E. Stratmann, 
 O. Yazyev, A. J. Austin, R. Cammi, C. Pomelli, J. W. Ochterski, 
 R. L. Martin, K. Morokuma, V. G. Zakrzewski, G. A. Voth, 
 P. Salvador, J. J. Dannenberg, S. Dapprich, A. D. Daniels, 
 O. Farkas, J. B. Foresman, J. V. Ortiz, J. Cioslowski, 
 and D. J. Fox, Gaussian, Inc., Wallingford CT, 2013.
 
 ******************************************
 Gaussian 09:  ES64L-G09RevD.01 24-Apr-2013
                17-Mar-2016 
 ******************************************
 -----------------------
 #P AM1(Input,Print) opt
 -----------------------
 1/14=-1,18=20,19=15,26=1,38=1/1,3;
 2/9=110,12=2,17=6,18=5,40=1/2;
 3/5=2,16=1,25=1,41=700000,71=1,135=100,136=1/1,2,3;
 4/35=1/1;
 5/5=2,35=1,38=5/2;
 6/7=2,8=2,9=2,10=2,28=1/1;
 7//1,2,3,16;
 1/14=-1,18=20,19=15,26=1/3(2);
 2/9=110/2;
 99//99;
 2/9=110/2;
 3/5=2,16=1,25=1,41=700000,71=1,135=20,136=1/1,2,3;
 4/5=5,16=3,35=1/1;
 5/5=2,35=1,38=5/2;
 7//1,2,3,16;
 1/14=-1,18=20,19=15,26=1/3(-5);
 2/9=110/2;
 6/7=2,8=2,9=2,10=2,19=2,28=1/1;
 99/9=1/99;
 Leave Link    1 at Thu Mar 17 12:25:38 2016, MaxMem=           0 cpu:         0.0
 (Enter /opt/g09/g09/l101.exe)
 ----
 best
 ----
 Symbolic Z-matrix:
 Charge =  0 Multiplicity = 1
 6                     0.92586  -0.77283   0.0357 
 6                    -0.34479  -1.09225   0.02149 
 8                    -1.15732   0.00019  -0.00491 
 6                    -0.31753   1.10037   0.06166 
 6                     0.99982   0.72899   0.08571 
 1                     1.79737   1.38337  -0.01865 
 1                    -0.83553   2.01687   0.01046 
 1                    -0.90327  -2.11005   0.01437 
 1                     1.81684  -1.3506   -0.01507 
 
 NAtoms=      9 NQM=        9 NQMF=       0 NMMI=      0 NMMIF=      0
                NMic=       0 NMicF=      0.
                    Isotopes and Nuclear Properties:
 (Nuclear quadrupole moments (NQMom) in fm**2, nuclear magnetic moments (NMagM)
  in nuclear magnetons)

  Atom         1           2           3           4           5           6           7           8           9
 IAtWgt=          12          12          16          12          12           1           1           1           1
 AtmWgt=  12.0000000  12.0000000  15.9949146  12.0000000  12.0000000   1.0078250   1.0078250   1.0078250   1.0078250
 NucSpn=           0           0           0           0           0           1           1           1           1
 AtZEff=   0.0000000   0.0000000   0.0000000   0.0000000   0.0000000   0.0000000   0.0000000   0.0000000   0.0000000
 NQMom=    0.0000000   0.0000000   0.0000000   0.0000000   0.0000000   0.0000000   0.0000000   0.0000000   0.0000000
 NMagM=    0.0000000   0.0000000   0.0000000   0.0000000   0.0000000   2.7928460   2.7928460   2.7928460   2.7928460
 AtZNuc=   6.0000000   6.0000000   8.0000000   6.0000000   6.0000000   1.0000000   1.0000000   1.0000000   1.0000000
 Leave Link  101 at Thu Mar 17 12:25:38 2016, MaxMem=    33554432 cpu:         0.0
 (Enter /opt/g09/g09/l103.exe)

 GradGradGradGradGradGradGradGradGradGradGradGradGradGradGradGradGradGrad
 Berny optimization.
 Initialization pass.
                           ----------------------------
                           !    Initial Parameters    !
                           ! (Angstroms and Degrees)  !
 --------------------------                            --------------------------
 ! Name  Definition              Value          Derivative Info.                !
 --------------------------------------------------------------------------------
 ! R1    R(1,2)                  1.3103         estimate D2E/DX2                !
 ! R2    R(1,5)                  1.5045         estimate D2E/DX2                !
 ! R3    R(1,9)                  1.0631         estimate D2E/DX2                !
 ! R4    R(2,3)                  1.3617         estimate D2E/DX2                !
 ! R5    R(2,8)                  1.161          estimate D2E/DX2                !
 ! R6    R(3,4)                  1.3857         estimate D2E/DX2                !
 ! R7    R(4,5)                  1.3689         estimate D2E/DX2                !
 ! R8    R(4,7)                  1.054          estimate D2E/DX2                !
 ! R9    R(5,6)                  1.0369         estimate D2E/DX2                !
 ! A1    A(2,1,5)              106.9409         estimate D2E/DX2                !
 ! A2    A(2,1,9)              132.823          estimate D2E/DX2                !
 ! A3    A(5,1,9)              120.1915         estimate D2E/DX2                !
 ! A4    A(1,2,3)              112.5375         estimate D2E/DX2                !
 ! A5    A(1,2,8)              132.8661         estimate D2E/DX2                !
 ! A6    A(3,2,8)              114.5917         estimate D2E/DX2                !
 ! A7    A(2,3,4)              105.9261         estimate D2E/DX2                !
 ! A8    A(3,4,5)              111.6335         estimate D2E/DX2                !
 ! A9    A(3,4,7)              112.9668         estimate D2E/DX2                !
 ! A10   A(5,4,7)              135.2118         estimate D2E/DX2                !
 ! A11   A(1,5,4)              102.8812         estimate D2E/DX2                !
 ! A12   A(1,5,6)              131.6396         estimate D2E/DX2                !
 ! A13   A(4,5,6)              124.5553         estimate D2E/DX2                !
 ! D1    D(5,1,2,3)              2.747          estimate D2E/DX2                !
 ! D2    D(5,1,2,8)           -178.1005         estimate D2E/DX2                !
 ! D3    D(9,1,2,3)           -174.7448         estimate D2E/DX2                !
 ! D4    D(9,1,2,8)              4.4076         estimate D2E/DX2                !
 ! D5    D(2,1,5,4)             -1.3995         estimate D2E/DX2                !
 ! D6    D(2,1,5,6)           -170.4737         estimate D2E/DX2                !
 ! D7    D(9,1,5,4)            176.4724         estimate D2E/DX2                !
 ! D8    D(9,1,5,6)              7.3982         estimate D2E/DX2                !
 ! D9    D(1,2,3,4)             -2.9701         estimate D2E/DX2                !
 ! D10   D(8,2,3,4)            177.7131         estimate D2E/DX2                !
 ! D11   D(2,3,4,5)              1.9524         estimate D2E/DX2                !
 ! D12   D(2,3,4,7)            177.7449         estimate D2E/DX2                !
 ! D13   D(3,4,5,1)             -0.3787         estimate D2E/DX2                !
 ! D14   D(3,4,5,6)            169.7176         estimate D2E/DX2                !
 ! D15   D(7,4,5,1)           -174.8763         estimate D2E/DX2                !
 ! D16   D(7,4,5,6)             -4.7799         estimate D2E/DX2                !
 --------------------------------------------------------------------------------
 Trust Radius=3.00D-01 FncErr=1.00D-07 GrdErr=1.00D-07
 Number of steps in this run=     48 maximum allowed number of steps=    100.
 GradGradGradGradGradGradGradGradGradGradGradGradGradGradGradGradGradGrad

 Leave Link  103 at Thu Mar 17 12:25:38 2016, MaxMem=    33554432 cpu:         0.0
 (Enter /opt/g09/g09/l202.exe)
                          Input orientation:                          
 ---------------------------------------------------------------------
 Center     Atomic      Atomic             Coordinates (Angstroms)
 Number     Number       Type             X           Y           Z
 ---------------------------------------------------------------------
      1          6           0        0.925863   -0.772834    0.035697
      2          6           0       -0.344790   -1.092252    0.021488
      3          8           0       -1.157321    0.000187   -0.004913
      4          6           0       -0.317525    1.100371    0.061662
      5          6           0        0.999822    0.728986    0.085707
      6          1           0        1.797370    1.383372   -0.018645
      7          1           0       -0.835531    2.016866    0.010457
      8          1           0       -0.903272   -2.110048    0.014369
      9          1           0        1.816842   -1.350601   -0.015067
 ---------------------------------------------------------------------
                    Distance matrix (angstroms):
                    1          2          3          4          5
     1  C    0.000000
     2  C    1.310263   0.000000
     3  O    2.222356   1.361737   0.000000
     4  C    2.248463   2.193160   1.385675   0.000000
     5  C    1.504471   2.264733   2.278733   1.368908   0.000000
     6  H    2.326306   3.274015   3.262451   2.135256   1.036915
     7  H    3.299329   3.147628   2.042249   1.054000   2.243394
     8  H    2.265906   1.160974   2.125560   3.263760   3.418621
     9  H    1.063125   2.177323   3.266554   3.250950   2.236595
                    6          7          8          9
     6  H    0.000000
     7  H    2.708197   0.000000
     8  H    4.415715   4.127472   0.000000
     9  H    2.734045   4.286673   2.824296   0.000000
 Stoichiometry    C4H4O
 Framework group  C1[X(C4H4O)]
 Deg. of freedom    21
 Full point group                 C1      NOp   1
 Largest Abelian subgroup         C1      NOp   1
 Largest concise Abelian subgroup C1      NOp   1
                         Standard orientation:                         
 ---------------------------------------------------------------------
 Center     Atomic      Atomic             Coordinates (Angstroms)
 Number     Number       Type             X           Y           Z
 ---------------------------------------------------------------------
      1          6           0       -0.554363    1.060849    0.001236
      2          6           0       -1.134102   -0.114131   -0.009338
      3          8           0       -0.237619   -1.138746    0.019128
      4          6           0        1.015560   -0.548662   -0.018770
      5          6           0        0.930040    0.817548   -0.026826
      6          1           0        1.735688    1.458024    0.099327
      7          1           0        1.801593   -1.248648    0.036784
      8          1           0       -2.246572   -0.445821   -0.025235
      9          1           0       -0.932564    2.052789    0.058287
 ---------------------------------------------------------------------
 Rotational constants (GHZ):      9.3815996      9.1228554      4.6279807
 Leave Link  202 at Thu Mar 17 12:25:38 2016, MaxMem=    33554432 cpu:         0.0
 (Enter /opt/g09/g09/l301.exe)

 Semi-emprical parameters in input format:
 Method=8 CoreType=1 PeptideFC=0.0121627755 RIJScale=0.5329692868
 ****
 H       
 PQN=1 NValence=1 F0ss=0.4596102662 ZetaOverlap=1.1592993284 U=-0.4315264548
 Beta=-0.2574815583 CoreKO=1.0589197790 KON=0,0,0,1.0446607980 KON=1,0,1,1.2026196827
 KON=0,1,1,0.9852480286 KON=2,1,1,1.0739077844 EISol=-0.4188110042 EHeat=0.0830298228
 Alpha=1.3265785197
 GCore=0.0066345782,1.4001425905,2.4702535464
 GCore=0.0003578457,1.4001425905,3.4015070392
 GCore=-0.0013248148,0.5311011039,3.4444930193
 ****
 C       
 PQN=2,2 NValence=4 F0ss=0.4280809825 F0sp=0.4354185183 F0pp=0.3443629353 F2pp=0.1874607059
 G1sp=0.2978928175
 ZetaOverlap=2.0385029058,1.5129290938
 U=-1.6710041047,-1.4560985900
 Beta=-0.6224486609,-0.3273443342 DDN=0,1,0.7627154330 DDN=1,1,0.7406048937
 CoreKO=1.1295849289 KON=0,0,0,1.1424307781 KON=1,0,1,0.7209071901 KON=0,1,1,1.1315783315
 KON=2,1,1,0.8096510931 EISol=-4.4398989268 EHeat=0.2723305520 Alpha=1.3390660019
 DipHyp=1.5253431066
 GCore=0.0008612005,1.5839209328,3.3965438871
 GCore=0.0031892455,1.5820975212,3.6106140366
 GCore=-0.0014610573,1.5106511485,3.5277311610
 GCore=-0.0000912823,1.3076823148,5.3686734941
 ****
 O       
 PQN=2,2 NValence=6 F0ss=0.5445226887 F0sp=0.5423941178 F0pp=0.4690460152 F2pp=0.2512047460
 G1sp=0.4365302021
 ZetaOverlap=3.1537499085,2.5627595232
 U=-3.2874974178,-2.9110223154
 Beta=-1.1824627399,-1.1994404385 DDN=0,1,0.4533663278 DDN=1,1,0.5416053721
 CoreKO=0.8822957477 KON=0,0,0,0.8801278439 KON=1,0,1,0.5396004592 KON=0,1,1,0.8822957477
 KON=2,1,1,0.5515584117 EISol=-11.6164441184 EHeat=0.0949133088 Alpha=2.0516420562
 DipHyp=0.9066804905
 GCore=0.0192698894,1.0058365967,1.6548979063
 GCore=0.0071015025,1.9056828561,2.6643272210
 ****
 
 Standard basis: VSTO-6G (5D, 7F)
 Ernie: Thresh=  0.10000D-02 Tol=  0.10000D-05 Strict=F.
  NNHCO=     0 NNPyr=     0 NCTC=     0               EPep=         0.000000000
    EC=        68.222600081  ECS=         2.235302815   EG=         0.394701571
   EHC=         0.000000000  EAt=       -31.051283842  AtH=         1.516354808
 EPDDG=         0.000000000  ECC=        70.852604468 EAtT=        32.567638650
 There are    24 symmetry adapted cartesian basis functions of A   symmetry.
 There are    24 symmetry adapted basis functions of A   symmetry.
    24 basis functions,   144 primitive gaussians,    24 cartesian basis functions
    13 alpha electrons       13 beta electrons
       nuclear repulsion energy       103.4202431179 Hartrees.
 IExCor=    0 DFT=F Ex=HF Corr=None ExCW=0 ScaHFX=  1.000000
 ScaDFX=  1.000000  1.000000  1.000000  1.000000 ScalE2=  1.000000  1.000000
 IRadAn=      0 IRanWt=     -1 IRanGd=            0 ICorTp=0 IEmpDi=  4
 Integral buffers will be    131072 words long.
 Regular integral format.
 Two-electron integral symmetry is turned off.
 Leave Link  301 at Thu Mar 17 12:25:38 2016, MaxMem=    33554432 cpu:         0.0
 (Enter /opt/g09/g09/l302.exe)
 Do NDO integrals.
 NPDir=0 NMtPBC=     1 NCelOv=     1 NCel=       1 NClECP=     1 NCelD=      1
         NCelK=      1 NCelE2=     1 NClLst=     1 CellRange=     0.0.
 One-electron integrals computed using PRISM.
 NBasis=    24 RedAO= F EigKep=  0.00D+00  NBF=    24
 NBsUse=    24 1.00D-04 EigRej=  0.00D+00 NBFU=    24
 Leave Link  302 at Thu Mar 17 12:25:38 2016, MaxMem=    33554432 cpu:         0.0
 (Enter /opt/g09/g09/l303.exe)
 DipDrv:  MaxL=1.
 Leave Link  303 at Thu Mar 17 12:25:38 2016, MaxMem=    33554432 cpu:         0.0
 (Enter /opt/g09/g09/l401.exe)
 Simple Huckel Guess.
 JPrj=0 DoOrth=F DoCkMO=F.
 Leave Link  401 at Thu Mar 17 12:25:38 2016, MaxMem=    33554432 cpu:         0.0
 (Enter /opt/g09/g09/l502.exe)
 Closed shell SCF:
 Using DIIS extrapolation, IDIIS=  1040.
 Overlap will be assumed to be unity.
 Two-electron integral symmetry not used.
 Keep J ints in memory in canonical form, NReq=888082.
 IVT=       79475 IEndB=       79475 NGot=    33554432 MDV=    33473473
 LenX=    33473473 LenY=    33472456
 Requested convergence on RMS density matrix=1.00D-08 within 128 cycles.
 Requested convergence on MAX density matrix=1.00D-06.
 Requested convergence on             energy=1.00D-06.
 No special actions if energy rises.
 FoFCou: FMM=F IPFlag=           0 FMFlag=           0 FMFlg1=           0
         NFxFlg=           0 DoJE=F BraDBF=F KetDBF=F FulRan=T
         wScrn=  0.000000 ICntrl=     600 IOpCl=  2 I1Cent=           0 NGrid=           0
         NMat0=    1 NMatS0=     54 NMatT0=    0 NMatD0=    1 NMtDS0=    0 NMtDT0=    0
 Symmetry not used in FoFCou.

 Cycle   1  Pass 1  IDiag  1:
 E= 0.694172936801110    
 DIIS: error= 2.06D-02 at cycle   1 NSaved=   1.
 NSaved= 1 IEnMin= 1 EnMin= 0.694172936801110     IErMin= 1 ErrMin= 2.06D-02
 ErrMax= 2.06D-02  0.00D+00 EMaxC= 1.00D-01 BMatC= 2.48D-02 BMatP= 2.48D-02
 IDIUse=3 WtCom= 7.94D-01 WtEn= 2.06D-01
 Coeff-Com:  0.100D+01
 Coeff-En:   0.100D+01
 Coeff:      0.100D+01
 GapD=    2.000 DampG=2.000 DampE=0.500 DampFc=1.0000 IDamp=-1.
 RMSDP=9.37D-03 MaxDP=4.81D-02              OVMax= 0.00D+00

 Cycle   2  Pass 1  IDiag  1:
 E= 0.633264419801307     Delta-E=       -0.060908517000 Rises=F Damp=F
 DIIS: error= 7.26D-03 at cycle   2 NSaved=   2.
 NSaved= 2 IEnMin= 2 EnMin= 0.633264419801307     IErMin= 2 ErrMin= 7.26D-03
 ErrMax= 7.26D-03  0.00D+00 EMaxC= 1.00D-01 BMatC= 1.99D-03 BMatP= 2.48D-02
 IDIUse=3 WtCom= 9.27D-01 WtEn= 7.26D-02
 Coeff-Com: -0.321D+00 0.132D+01
 Coeff-En:   0.000D+00 0.100D+01
 Coeff:     -0.298D+00 0.130D+01
 RMSDP=3.83D-03 MaxDP=2.36D-02 DE=-6.09D-02 OVMax= 0.00D+00

 Cycle   3  Pass 1  IDiag  3:
 E= 0.626674578774470     Delta-E=       -0.006589841027 Rises=F Damp=F
 DIIS: error= 1.50D-03 at cycle   3 NSaved=   3.
 NSaved= 3 IEnMin= 3 EnMin= 0.626674578774470     IErMin= 3 ErrMin= 1.50D-03
 ErrMax= 1.50D-03  0.00D+00 EMaxC= 1.00D-01 BMatC= 8.45D-05 BMatP= 1.99D-03
 IDIUse=3 WtCom= 9.85D-01 WtEn= 1.50D-02
 Coeff-Com:  0.103D+00-0.545D+00 0.144D+01
 Coeff-En:   0.000D+00 0.000D+00 0.100D+01
 Coeff:      0.101D+00-0.536D+00 0.144D+01
 Gap=     0.422 Goal=   None    Shift=    0.000
 RMSDP=1.05D-03 MaxDP=6.64D-03 DE=-6.59D-03 OVMax= 8.36D-03

 Cycle   4  Pass 1  IDiag  3:
 E= 0.626304648349560     Delta-E=       -0.000369930425 Rises=F Damp=F
 DIIS: error= 3.19D-04 at cycle   4 NSaved=   4.
 NSaved= 4 IEnMin= 4 EnMin= 0.626304648349560     IErMin= 4 ErrMin= 3.19D-04
 ErrMax= 3.19D-04  0.00D+00 EMaxC= 1.00D-01 BMatC= 2.42D-06 BMatP= 8.45D-05
 IDIUse=3 WtCom= 9.97D-01 WtEn= 3.19D-03
 Coeff-Com: -0.422D-02 0.375D-01-0.257D+00 0.122D+01
 Coeff-En:   0.000D+00 0.000D+00 0.000D+00 0.100D+01
 Coeff:     -0.420D-02 0.374D-01-0.257D+00 0.122D+01
 Gap=     0.422 Goal=   None    Shift=    0.000
 RMSDP=1.89D-04 MaxDP=1.52D-03 DE=-3.70D-04 OVMax= 1.77D-03

 Cycle   5  Pass 1  IDiag  3:
 E= 0.626293488213065     Delta-E=       -0.000011160136 Rises=F Damp=F
 DIIS: error= 6.96D-05 at cycle   5 NSaved=   5.
 NSaved= 5 IEnMin= 5 EnMin= 0.626293488213065     IErMin= 5 ErrMin= 6.96D-05
 ErrMax= 6.96D-05  0.00D+00 EMaxC= 1.00D-01 BMatC= 9.98D-08 BMatP= 2.42D-06
 IDIUse=1 WtCom= 1.00D+00 WtEn= 0.00D+00
 Coeff-Com: -0.151D-02 0.371D-02 0.378D-01-0.391D+00 0.135D+01
 Coeff:     -0.151D-02 0.371D-02 0.378D-01-0.391D+00 0.135D+01
 Gap=     0.422 Goal=   None    Shift=    0.000
 RMSDP=3.86D-05 MaxDP=3.28D-04 DE=-1.12D-05 OVMax= 3.92D-04

 Cycle   6  Pass 1  IDiag  3:
 E= 0.626293031132803     Delta-E=       -0.000000457080 Rises=F Damp=F
 DIIS: error= 1.19D-05 at cycle   6 NSaved=   6.
 NSaved= 6 IEnMin= 6 EnMin= 0.626293031132803     IErMin= 6 ErrMin= 1.19D-05
 ErrMax= 1.19D-05  0.00D+00 EMaxC= 1.00D-01 BMatC= 4.17D-09 BMatP= 9.98D-08
 IDIUse=1 WtCom= 1.00D+00 WtEn= 0.00D+00
 Coeff-Com:  0.938D-03-0.343D-02-0.817D-02 0.141D+00-0.624D+00 0.149D+01
 Coeff:      0.938D-03-0.343D-02-0.817D-02 0.141D+00-0.624D+00 0.149D+01
 Gap=     0.422 Goal=   None    Shift=    0.000
 RMSDP=8.56D-06 MaxDP=6.20D-05 DE=-4.57D-07 OVMax= 7.00D-05

 Cycle   7  Pass 1  IDiag  3:
 E= 0.626293011139538     Delta-E=       -0.000000019993 Rises=F Damp=F
 DIIS: error= 1.71D-06 at cycle   7 NSaved=   7.
 NSaved= 7 IEnMin= 7 EnMin= 0.626293011139538     IErMin= 7 ErrMin= 1.71D-06
 ErrMax= 1.71D-06  0.00D+00 EMaxC= 1.00D-01 BMatC= 1.15D-10 BMatP= 4.17D-09
 IDIUse=1 WtCom= 1.00D+00 WtEn= 0.00D+00
 Coeff-Com: -0.326D-03 0.123D-02 0.255D-02-0.481D-01 0.223D+00-0.621D+00
 Coeff-Com:  0.144D+01
 Coeff:     -0.326D-03 0.123D-02 0.255D-02-0.481D-01 0.223D+00-0.621D+00
 Coeff:      0.144D+01
 Gap=     0.422 Goal=   None    Shift=    0.000
 RMSDP=1.56D-06 MaxDP=1.35D-05 DE=-2.00D-08 OVMax= 1.17D-05

 Cycle   8  Pass 1  IDiag  3:
 E= 0.626293010487984     Delta-E=       -0.000000000652 Rises=F Damp=F
 DIIS: error= 5.59D-07 at cycle   8 NSaved=   8.
 NSaved= 8 IEnMin= 8 EnMin= 0.626293010487984     IErMin= 8 ErrMin= 5.59D-07
 ErrMax= 5.59D-07  0.00D+00 EMaxC= 1.00D-01 BMatC= 8.26D-12 BMatP= 1.15D-10
 IDIUse=1 WtCom= 1.00D+00 WtEn= 0.00D+00
 Coeff-Com:  0.150D-03-0.591D-03-0.922D-03 0.207D-01-0.100D+00 0.294D+00
 Coeff-Com: -0.846D+00 0.163D+01
 Coeff:      0.150D-03-0.591D-03-0.922D-03 0.207D-01-0.100D+00 0.294D+00
 Coeff:     -0.846D+00 0.163D+01
 Gap=     0.422 Goal=   None    Shift=    0.000
 RMSDP=5.24D-07 MaxDP=5.33D-06 DE=-6.52D-10 OVMax= 4.97D-06

 Cycle   9  Pass 1  IDiag  3:
 E= 0.626293010430771     Delta-E=       -0.000000000057 Rises=F Damp=F
 DIIS: error= 1.37D-07 at cycle   9 NSaved=   9.
 NSaved= 9 IEnMin= 9 EnMin= 0.626293010430771     IErMin= 9 ErrMin= 1.37D-07
 ErrMax= 1.37D-07  0.00D+00 EMaxC= 1.00D-01 BMatC= 4.28D-13 BMatP= 8.26D-12
 IDIUse=1 WtCom= 1.00D+00 WtEn= 0.00D+00
 Coeff-Com: -0.320D-04 0.129D-03 0.175D-03-0.443D-02 0.226D-01-0.709D-01
 Coeff-Com:  0.235D+00-0.652D+00 0.147D+01
 Coeff:     -0.320D-04 0.129D-03 0.175D-03-0.443D-02 0.226D-01-0.709D-01
 Coeff:      0.235D+00-0.652D+00 0.147D+01
 Gap=     0.422 Goal=   None    Shift=    0.000
 RMSDP=1.30D-07 MaxDP=1.40D-06 DE=-5.72D-11 OVMax= 1.46D-06

 Cycle  10  Pass 1  IDiag  3:
 E= 0.626293010427673     Delta-E=       -0.000000000003 Rises=F Damp=F
 DIIS: error= 3.07D-08 at cycle  10 NSaved=  10.
 NSaved=10 IEnMin=10 EnMin= 0.626293010427673     IErMin=10 ErrMin= 3.07D-08
 ErrMax= 3.07D-08  0.00D+00 EMaxC= 1.00D-01 BMatC= 2.08D-14 BMatP= 4.28D-13
 IDIUse=1 WtCom= 1.00D+00 WtEn= 0.00D+00
 Coeff-Com:  0.341D-05-0.155D-04-0.800D-05 0.474D-03-0.291D-02 0.108D-01
 Coeff-Com: -0.449D-01 0.163D+00-0.554D+00 0.143D+01
 Coeff:      0.341D-05-0.155D-04-0.800D-05 0.474D-03-0.291D-02 0.108D-01
 Coeff:     -0.449D-01 0.163D+00-0.554D+00 0.143D+01
 Gap=     0.422 Goal=   None    Shift=    0.000
 RMSDP=2.60D-08 MaxDP=2.39D-07 DE=-3.10D-12 OVMax= 3.13D-07

 Cycle  11  Pass 1  IDiag  3:
 E= 0.626293010427389     Delta-E=        0.000000000000 Rises=F Damp=F
 DIIS: error= 1.13D-08 at cycle  11 NSaved=  11.
 NSaved=11 IEnMin=11 EnMin= 0.626293010427389     IErMin=11 ErrMin= 1.13D-08
 ErrMax= 1.13D-08  0.00D+00 EMaxC= 1.00D-01 BMatC= 2.10D-15 BMatP= 2.08D-14
 IDIUse=1 WtCom= 1.00D+00 WtEn= 0.00D+00
 Coeff-Com: -0.294D-06 0.263D-05-0.103D-04-0.720D-05 0.418D-03-0.253D-02
 Coeff-Com:  0.149D-01-0.667D-01 0.273D+00-0.987D+00 0.177D+01
 Coeff:     -0.294D-06 0.263D-05-0.103D-04-0.720D-05 0.418D-03-0.253D-02
 Coeff:      0.149D-01-0.667D-01 0.273D+00-0.987D+00 0.177D+01
 Gap=     0.422 Goal=   None    Shift=    0.000
 RMSDP=9.80D-09 MaxDP=1.10D-07 DE=-2.84D-13 OVMax= 8.94D-08

 Cycle  12  Pass 2  IDiag  1:
 SCF Done:  E(RAM1) =  0.626293010427     A.U. after   12 cycles
            NFock= 11  Conv=0.98D-08     -V/T= 1.0390
 KE=-1.604886194220D+01 PE=-1.693414559771D+02 EE= 8.259636781180D+01
 Leave Link  502 at Thu Mar 17 12:25:38 2016, MaxMem=    33554432 cpu:         0.0
 (Enter /opt/g09/g09/l601.exe)
 Copying SCF densities to generalized density rwf, IOpCl= 0 IROHF=0.

 **********************************************************************

            Population analysis using the SCF density.

 **********************************************************************

 Orbital symmetries:
       Occupied  (A) (A) (A) (A) (A) (A) (A) (A) (A) (A) (A) (A)
                 (A)
       Virtual   (A) (A) (A) (A) (A) (A) (A) (A) (A) (A) (A)
 The electronic state is 1-A.
 Alpha  occ. eigenvalues --   -1.39344  -1.07837  -1.02526  -0.92896  -0.81984
 Alpha  occ. eigenvalues --   -0.76404  -0.74004  -0.63195  -0.60185  -0.58979
 Alpha  occ. eigenvalues --   -0.55034  -0.51943  -0.45550
 Alpha virt. eigenvalues --   -0.03371   0.00262   0.09335   0.09845   0.15578
 Alpha virt. eigenvalues --    0.15632   0.16984   0.20816   0.23281   0.27597
 Alpha virt. eigenvalues --    0.30001
          Condensed to atoms (all electrons):
               1          2          3          4          5          6
     1  C    4.219980   0.000000   0.000000   0.000000   0.000000   0.000000
     2  C    0.000000   3.841795   0.000000   0.000000   0.000000   0.000000
     3  O    0.000000   0.000000   6.315637   0.000000   0.000000   0.000000
     4  C    0.000000   0.000000   0.000000   3.830382   0.000000   0.000000
     5  C    0.000000   0.000000   0.000000   0.000000   4.195326   0.000000
     6  H    0.000000   0.000000   0.000000   0.000000   0.000000   0.896090
     7  H    0.000000   0.000000   0.000000   0.000000   0.000000   0.000000
     8  H    0.000000   0.000000   0.000000   0.000000   0.000000   0.000000
     9  H    0.000000   0.000000   0.000000   0.000000   0.000000   0.000000
               7          8          9
     1  C    0.000000   0.000000   0.000000
     2  C    0.000000   0.000000   0.000000
     3  O    0.000000   0.000000   0.000000
     4  C    0.000000   0.000000   0.000000
     5  C    0.000000   0.000000   0.000000
     6  H    0.000000   0.000000   0.000000
     7  H    0.917077   0.000000   0.000000
     8  H    0.000000   0.898309   0.000000
     9  H    0.000000   0.000000   0.885405
 Mulliken charges:
               1
     1  C   -0.219980
     2  C    0.158205
     3  O   -0.315637
     4  C    0.169618
     5  C   -0.195326
     6  H    0.103910
     7  H    0.082923
     8  H    0.101691
     9  H    0.114595
 Sum of Mulliken charges =   0.00000
 Mulliken charges with hydrogens summed into heavy atoms:
               1
     1  C   -0.105385
     2  C    0.259896
     3  O   -0.315637
     4  C    0.252541
     5  C   -0.091416
 Charge=              0.0000 electrons
 Dipole moment (field-independent basis, Debye):
    X=              0.0823    Y=              0.6951    Z=              0.0640  Tot=              0.7029
 N-N= 1.034202431179D+02 E-N=-1.693414559515D+02  KE=-1.604886194220D+01
 Leave Link  601 at Thu Mar 17 12:25:38 2016, MaxMem=    33554432 cpu:         0.0
 (Enter /opt/g09/g09/l701.exe)
 Compute integral first derivatives.
 ... and contract with generalized density number  0.
 Leave Link  701 at Thu Mar 17 12:25:38 2016, MaxMem=    33554432 cpu:         0.0
 (Enter /opt/g09/g09/l702.exe)
 L702 exits ... SP integral derivatives will be done elsewhere.
 Leave Link  702 at Thu Mar 17 12:25:38 2016, MaxMem=    33554432 cpu:         0.0
 (Enter /opt/g09/g09/l703.exe)
 Compute integral first derivatives, UseDBF=F ICtDFT=           0.
 Integral derivatives from FoFJK, PRISM(SPDF).
 Calling FoFJK, ICntrl=      2127 FMM=F ISym2X=0 I1Cent= 0 IOpClX= 0 NMat=1 NMatS=1 NMatT=0.
 FoFJK:  IHMeth= 8 ICntrl=    2127 DoSepK=F KAlg= 0 I1Cent=   0 FoldK=F
 IRaf=         0 NMat=   1 IRICut=       1 DoRegI=T DoRafI=F ISym2E= 0.
 FoFCou: FMM=F IPFlag=           0 FMFlag=      100000 FMFlg1=         800
         NFxFlg=           0 DoJE=F BraDBF=F KetDBF=F FulRan=T
         wScrn=  0.000000 ICntrl=    2127 IOpCl=  0 I1Cent=           0 NGrid=           0
         NMat0=    1 NMatS0=      1 NMatT0=    0 NMatD0=    1 NMtDS0=    0 NMtDT0=    0
 Symmetry not used in FoFCou.
 Leave Link  703 at Thu Mar 17 12:25:38 2016, MaxMem=    33554432 cpu:         0.0
 (Enter /opt/g09/g09/l716.exe)
 Dipole        = 3.23742836D-02 2.73492575D-01 2.51964671D-02
 ***** Axes restored to original set *****
 -------------------------------------------------------------------
 Center     Atomic                   Forces (Hartrees/Bohr)
 Number     Number              X              Y              Z
 -------------------------------------------------------------------
      1        6           0.037901293    0.078680282    0.006502269
      2        6          -0.054607390   -0.106107027   -0.005781016
      3        8          -0.015795449    0.009046686    0.009769819
      4        6           0.032875104    0.012374197   -0.004871532
      5        6          -0.086983979   -0.068256268   -0.012107817
      6        1           0.052905223    0.028963737    0.003492212
      7        1          -0.014063917    0.048996535    0.002292935
      8        1           0.017186039    0.022359757   -0.000623350
      9        1           0.030583076   -0.026057900    0.001326479
 -------------------------------------------------------------------
 Cartesian Forces:  Max     0.106107027 RMS     0.040672668
 Leave Link  716 at Thu Mar 17 12:25:38 2016, MaxMem=    33554432 cpu:         0.0
 (Enter /opt/g09/g09/l103.exe)

 GradGradGradGradGradGradGradGradGradGradGradGradGradGradGradGradGradGrad
 Berny optimization.
 FormGI is forming the generalized inverse of G from B-inverse, IUseBI=4.
 Internal  Forces:  Max     0.058619545 RMS     0.022649345
 Search for a local minimum.
 Step number   1 out of a maximum of   48
 All quantities printed in internal units (Hartrees-Bohrs-Radians)
 RMS Force = .22649D-01 SwitMx=.10000D-02 MixMth= 1
 Mixed Optimization -- RFO/linear search
 Second derivative matrix not updated -- first step.
 ITU=  0
     Eigenvalues ---    0.01391   0.01850   0.02209   0.02371   0.02526
     Eigenvalues ---    0.03038   0.15522   0.15950   0.15980   0.15999
     Eigenvalues ---    0.22002   0.22875   0.27748   0.31068   0.38113
     Eigenvalues ---    0.39328   0.41745   0.44839   0.47163   0.51678
     Eigenvalues ---    0.61556
 RFO step:  Lambda=-4.90100774D-02 EMin= 1.39101746D-02
 Linear search not attempted -- first point.
 Maximum step size (   0.300) exceeded in Quadratic search.
    -- Step size scaled by   0.860
 Iteration  1 RMS(Cart)=  0.05589991 RMS(Int)=  0.00305912
 Iteration  2 RMS(Cart)=  0.00254049 RMS(Int)=  0.00146504
 Iteration  3 RMS(Cart)=  0.00000959 RMS(Int)=  0.00146500
 Iteration  4 RMS(Cart)=  0.00000004 RMS(Int)=  0.00146500
 ITry= 1 IFail=0 DXMaxC= 2.19D-01 DCOld= 1.00D+10 DXMaxT= 3.00D-01 DXLimC= 3.00D+00 Rises=F
 Variable       Old X    -DE/DX   Delta X   Delta X   Delta X     New X
                                 (Linear)    (Quad)   (Total)
    R1        2.47604   0.05289   0.00000   0.06953   0.06930   2.54533
    R2        2.84304  -0.02108   0.00000  -0.05683  -0.05651   2.78653
    R3        2.00902   0.03973   0.00000   0.07945   0.07945   2.08847
    R4        2.57331   0.04600   0.00000   0.07667   0.07620   2.64951
    R5        2.19392  -0.02787   0.00000  -0.07342  -0.07342   2.12050
    R6        2.61855   0.03726   0.00000   0.06088   0.06081   2.67935
    R7        2.58686  -0.00615   0.00000  -0.01696  -0.01651   2.57035
    R8        1.99177   0.04941   0.00000   0.09609   0.09609   2.08786
    R9        1.95949   0.05862   0.00000   0.10810   0.10810   2.06759
    A1        1.86647   0.00396   0.00000   0.01221   0.01241   1.87888
    A2        2.31820  -0.00693   0.00000  -0.02652  -0.02673   2.29147
    A3        2.09774   0.00301   0.00000   0.01461   0.01457   2.11231
    A4        1.96415  -0.02933   0.00000  -0.07134  -0.07215   1.89200
    A5        2.31895   0.00998   0.00000   0.01654   0.01646   2.33541
    A6        2.00000   0.01941   0.00000   0.05536   0.05530   2.05530
    A7        1.84876   0.01138   0.00000   0.05375   0.05325   1.90200
    A8        1.94837  -0.01936   0.00000  -0.07546  -0.07533   1.87305
    A9        1.97164   0.02161   0.00000   0.08847   0.08783   2.05948
   A10        2.35989  -0.00198   0.00000  -0.00887  -0.00958   2.35031
   A11        1.79562   0.03360   0.00000   0.08363   0.08321   1.87882
   A12        2.29754  -0.02629   0.00000  -0.07778  -0.08002   2.21752
   A13        2.17390  -0.00594   0.00000   0.01004   0.00879   2.18269
    D1        0.04794  -0.00507   0.00000  -0.05188  -0.05013  -0.00218
    D2       -3.10844   0.00011   0.00000  -0.00022  -0.00036  -3.10880
    D3       -3.04987  -0.00631   0.00000  -0.06077  -0.05823  -3.10810
    D4        0.07693  -0.00113   0.00000  -0.00911  -0.00845   0.06847
    D5       -0.02443   0.00244   0.00000   0.02909   0.02989   0.00546
    D6       -2.97533  -0.00669   0.00000  -0.07007  -0.06631  -3.04164
    D7        3.08002   0.00319   0.00000   0.03540   0.03575   3.11577
    D8        0.12912  -0.00594   0.00000  -0.06375  -0.06045   0.06867
    D9       -0.05184   0.00485   0.00000   0.05055   0.05013  -0.00171
   D10        3.10168   0.00067   0.00000   0.00903   0.00968   3.11136
   D11        0.03408  -0.00208   0.00000  -0.02774  -0.02889   0.00519
   D12        3.10223   0.00079   0.00000   0.01792   0.02005   3.12228
   D13       -0.00661  -0.00007   0.00000   0.00020   0.00025  -0.00636
   D14        2.96213   0.00483   0.00000   0.07660   0.08098   3.04311
   D15       -3.05217  -0.00490   0.00000  -0.06406  -0.06537  -3.11754
   D16       -0.08342  -0.00001   0.00000   0.01234   0.01536  -0.06807
         Item               Value     Threshold  Converged?
 Maximum Force            0.058620     0.000450     NO 
 RMS     Force            0.022649     0.000300     NO 
 Maximum Displacement     0.218917     0.001800     NO 
 RMS     Displacement     0.055758     0.001200     NO 
 Predicted change in Energy=-2.698881D-02
 Lowest energy point so far.  Saving SCF results.
 GradGradGradGradGradGradGradGradGradGradGradGradGradGradGradGradGradGrad

 Leave Link  103 at Thu Mar 17 12:25:38 2016, MaxMem=    33554432 cpu:         0.0
 (Enter /opt/g09/g09/l202.exe)
                          Input orientation:                          
 ---------------------------------------------------------------------
 Center     Atomic      Atomic             Coordinates (Angstroms)
 Number     Number       Type             X           Y           Z
 ---------------------------------------------------------------------
      1          6           0        0.924858   -0.766167    0.032338
      2          6           0       -0.364692   -1.154290    0.006845
      3          8           0       -1.172119   -0.008076    0.012041
      4          6           0       -0.341728    1.140709    0.044439
      5          6           0        0.947786    0.708090    0.052069
      6          1           0        1.828017    1.354698   -0.012667
      7          1           0       -0.828044    2.132712    0.033618
      8          1           0       -0.875449   -2.153418    0.012198
      9          1           0        1.862829   -1.350212    0.009873
 ---------------------------------------------------------------------
                    Distance matrix (angstroms):
                    1          2          3          4          5
     1  C    0.000000
     2  C    1.346933   0.000000
     3  O    2.229894   1.402059   0.000000
     4  C    2.289228   2.295421   1.417852   0.000000
     5  C    1.474567   2.278838   2.237966   1.360170   0.000000
     6  H    2.305600   3.332173   3.295236   2.181020   1.094121
     7  H    3.387649   3.319607   2.168369   1.104848   2.276721
     8  H    2.272879   1.122123   2.165757   3.337240   3.393229
     9  H    1.105170   2.236122   3.318469   3.326552   2.252929
                    6          7          8          9
     6  H    0.000000
     7  H    2.768051   0.000000
     8  H    4.429021   4.286445   0.000000
     9  H    2.705228   4.401376   2.853649   0.000000
 Stoichiometry    C4H4O
 Framework group  C1[X(C4H4O)]
 Deg. of freedom    21
 Full point group                 C1      NOp   1
 RotChk:  IX=0 Diff= 2.58D-01
 Largest Abelian subgroup         C1      NOp   1
 Largest concise Abelian subgroup C1      NOp   1
                         Standard orientation:                         
 ---------------------------------------------------------------------
 Center     Atomic      Atomic             Coordinates (Angstroms)
 Number     Number       Type             X           Y           Z
 ---------------------------------------------------------------------
      1          6           0       -0.724029    0.957537   -0.006809
      2          6           0       -1.150157   -0.320152    0.005574
      3          8           0       -0.028196   -1.160969    0.006242
      4          6           0        1.144790   -0.364610   -0.008608
      5          6           0        0.750390    0.937121   -0.011442
      6          1           0        1.421905    1.797443    0.066103
      7          1           0        2.121895   -0.880026    0.008799
      8          1           0       -2.163767   -0.801180   -0.013535
      9          1           0       -1.280433    1.912145    0.016414
 ---------------------------------------------------------------------
 Rotational constants (GHZ):      9.3170226      8.7715317      4.5186864
 Leave Link  202 at Thu Mar 17 12:25:38 2016, MaxMem=    33554432 cpu:         0.0
 (Enter /opt/g09/g09/l301.exe)

 Semi-emprical parameters in input format:
 Method=8 CoreType=1 PeptideFC=0.0121627755 RIJScale=0.5329692868
 ****
 H       
 PQN=1 NValence=1 F0ss=0.4596102662 ZetaOverlap=1.1592993284 U=-0.4315264548
 Beta=-0.2574815583 CoreKO=1.0589197790 KON=0,0,0,1.0446607980 KON=1,0,1,1.2026196827
 KON=0,1,1,0.9852480286 KON=2,1,1,1.0739077844 EISol=-0.4188110042 EHeat=0.0830298228
 Alpha=1.3265785197
 GCore=0.0066345782,1.4001425905,2.4702535464
 GCore=0.0003578457,1.4001425905,3.4015070392
 GCore=-0.0013248148,0.5311011039,3.4444930193
 ****
 C       
 PQN=2,2 NValence=4 F0ss=0.4280809825 F0sp=0.4354185183 F0pp=0.3443629353 F2pp=0.1874607059
 G1sp=0.2978928175
 ZetaOverlap=2.0385029058,1.5129290938
 U=-1.6710041047,-1.4560985900
 Beta=-0.6224486609,-0.3273443342 DDN=0,1,0.7627154330 DDN=1,1,0.7406048937
 CoreKO=1.1295849289 KON=0,0,0,1.1424307781 KON=1,0,1,0.7209071901 KON=0,1,1,1.1315783315
 KON=2,1,1,0.8096510931 EISol=-4.4398989268 EHeat=0.2723305520 Alpha=1.3390660019
 DipHyp=1.5253431066
 GCore=0.0008612005,1.5839209328,3.3965438871
 GCore=0.0031892455,1.5820975212,3.6106140366
 GCore=-0.0014610573,1.5106511485,3.5277311610
 GCore=-0.0000912823,1.3076823148,5.3686734941
 ****
 O       
 PQN=2,2 NValence=6 F0ss=0.5445226887 F0sp=0.5423941178 F0pp=0.4690460152 F2pp=0.2512047460
 G1sp=0.4365302021
 ZetaOverlap=3.1537499085,2.5627595232
 U=-3.2874974178,-2.9110223154
 Beta=-1.1824627399,-1.1994404385 DDN=0,1,0.4533663278 DDN=1,1,0.5416053721
 CoreKO=0.8822957477 KON=0,0,0,0.8801278439 KON=1,0,1,0.5396004592 KON=0,1,1,0.8822957477
 KON=2,1,1,0.5515584117 EISol=-11.6164441184 EHeat=0.0949133088 Alpha=2.0516420562
 DipHyp=0.9066804905
 GCore=0.0192698894,1.0058365967,1.6548979063
 GCore=0.0071015025,1.9056828561,2.6643272210
 ****
 
 Standard basis: VSTO-6G (5D, 7F)
 Ernie: Thresh=  0.10000D-02 Tol=  0.10000D-05 Strict=F.
  NNHCO=     0 NNPyr=     0 NCTC=     0               EPep=         0.000000000
    EC=        67.564364392  ECS=         2.090842654   EG=         0.366638998
   EHC=         0.000000000  EAt=       -31.051283842  AtH=         1.516354808
 EPDDG=         0.000000000  ECC=        70.021846043 EAtT=        32.567638650
 There are    24 symmetry adapted cartesian basis functions of A   symmetry.
 There are    24 symmetry adapted basis functions of A   symmetry.
    24 basis functions,   144 primitive gaussians,    24 cartesian basis functions
    13 alpha electrons       13 beta electrons
       nuclear repulsion energy       102.5894846939 Hartrees.
 IExCor=    0 DFT=F Ex=HF Corr=None ExCW=0 ScaHFX=  1.000000
 ScaDFX=  1.000000  1.000000  1.000000  1.000000 ScalE2=  1.000000  1.000000
 IRadAn=      0 IRanWt=     -1 IRanGd=            0 ICorTp=0 IEmpDi=  4
 Integral buffers will be    131072 words long.
 Regular integral format.
 Two-electron integral symmetry is turned off.
 Leave Link  301 at Thu Mar 17 12:25:38 2016, MaxMem=    33554432 cpu:         0.0
 (Enter /opt/g09/g09/l302.exe)
 Do NDO integrals.
 NPDir=0 NMtPBC=     1 NCelOv=     1 NCel=       1 NClECP=     1 NCelD=      1
         NCelK=      1 NCelE2=     1 NClLst=     1 CellRange=     0.0.
 One-electron integrals computed using PRISM.
 NBasis=    24 RedAO= F EigKep=  0.00D+00  NBF=    24
 NBsUse=    24 1.00D-04 EigRej=  0.00D+00 NBFU=    24
 Leave Link  302 at Thu Mar 17 12:25:38 2016, MaxMem=    33554432 cpu:         0.0
 (Enter /opt/g09/g09/l303.exe)
 DipDrv:  MaxL=1.
 Leave Link  303 at Thu Mar 17 12:25:38 2016, MaxMem=    33554432 cpu:         0.0
 (Enter /opt/g09/g09/l401.exe)
 Initial guess from the checkpoint file:  "/opt/g09/scratch/Gau-1874.chk"
 B after Tr=     0.000000    0.000000    0.000000
         Rot=    0.996009    0.000344   -0.000042   -0.089255 Ang=  10.24 deg.
 Guess basis will be translated and rotated to current coordinates.
 JPrj=0 DoOrth=T DoCkMO=T.
 Leave Link  401 at Thu Mar 17 12:25:38 2016, MaxMem=    33554432 cpu:         0.0
 (Enter /opt/g09/g09/l502.exe)
 Closed shell SCF:
 Using DIIS extrapolation, IDIIS=  1040.
 Overlap will be assumed to be unity.
 Two-electron integral symmetry not used.
 Keep J ints in memory in canonical form, NReq=888082.
 IVT=       79475 IEndB=       79475 NGot=    33554432 MDV=    33473473
 LenX=    33473473 LenY=    33472456
 Requested convergence on RMS density matrix=1.00D-08 within 128 cycles.
 Requested convergence on MAX density matrix=1.00D-06.
 Requested convergence on             energy=1.00D-06.
 No special actions if energy rises.
 FoFCou: FMM=F IPFlag=           0 FMFlag=           0 FMFlg1=           0
         NFxFlg=           0 DoJE=F BraDBF=F KetDBF=F FulRan=T
         wScrn=  0.000000 ICntrl=     600 IOpCl=  2 I1Cent=           0 NGrid=           0
         NMat0=    1 NMatS0=     54 NMatT0=    0 NMatD0=    1 NMtDS0=    0 NMtDT0=    0
 Symmetry not used in FoFCou.

 Cycle   1  Pass 1  IDiag  1:
 E= 0.609650694828162    
 DIIS: error= 7.75D-03 at cycle   1 NSaved=   1.
 NSaved= 1 IEnMin= 1 EnMin= 0.609650694828162     IErMin= 1 ErrMin= 7.75D-03
 ErrMax= 7.75D-03  0.00D+00 EMaxC= 1.00D-01 BMatC= 2.74D-03 BMatP= 2.74D-03
 IDIUse=3 WtCom= 9.22D-01 WtEn= 7.75D-02
 Coeff-Com:  0.100D+01
 Coeff-En:   0.100D+01
 Coeff:      0.100D+01
 GapD=    2.000 DampG=2.000 DampE=1.000 DampFc=2.0000 IDamp=-1.
 RMSDP=3.01D-03 MaxDP=1.22D-02              OVMax= 0.00D+00

 Cycle   2  Pass 1  IDiag  3:
 E= 0.603061438904049     Delta-E=       -0.006589255924 Rises=F Damp=F
 DIIS: error= 2.02D-03 at cycle   2 NSaved=   2.
 NSaved= 2 IEnMin= 2 EnMin= 0.603061438904049     IErMin= 2 ErrMin= 2.02D-03
 ErrMax= 2.02D-03  0.00D+00 EMaxC= 1.00D-01 BMatC= 2.10D-04 BMatP= 2.74D-03
 IDIUse=3 WtCom= 9.80D-01 WtEn= 2.02D-02
 Coeff-Com: -0.348D+00 0.135D+01
 Coeff-En:   0.000D+00 0.100D+01
 Coeff:     -0.341D+00 0.134D+01
 Gap=     0.414 Goal=   None    Shift=    0.000
 RMSDP=1.25D-03 MaxDP=5.04D-03 DE=-6.59D-03 OVMax= 4.50D-03

 Cycle   3  Pass 1  IDiag  3:
 E= 0.602412636255664     Delta-E=       -0.000648802648 Rises=F Damp=F
 DIIS: error= 2.33D-04 at cycle   3 NSaved=   3.
 NSaved= 3 IEnMin= 3 EnMin= 0.602412636255664     IErMin= 3 ErrMin= 2.33D-04
 ErrMax= 2.33D-04  0.00D+00 EMaxC= 1.00D-01 BMatC= 3.45D-06 BMatP= 2.10D-04
 IDIUse=3 WtCom= 9.98D-01 WtEn= 2.33D-03
 Coeff-Com:  0.942D-01-0.415D+00 0.132D+01
 Coeff-En:   0.000D+00 0.000D+00 0.100D+01
 Coeff:      0.940D-01-0.414D+00 0.132D+01
 Gap=     0.413 Goal=   None    Shift=    0.000
 RMSDP=2.17D-04 MaxDP=8.55D-04 DE=-6.49D-04 OVMax= 1.26D-03

 Cycle   4  Pass 1  IDiag  3:
 E= 0.602396709398761     Delta-E=       -0.000015926857 Rises=F Damp=F
 DIIS: error= 5.32D-05 at cycle   4 NSaved=   4.
 NSaved= 4 IEnMin= 4 EnMin= 0.602396709398761     IErMin= 4 ErrMin= 5.32D-05
 ErrMax= 5.32D-05  0.00D+00 EMaxC= 1.00D-01 BMatC= 1.50D-07 BMatP= 3.45D-06
 IDIUse=1 WtCom= 1.00D+00 WtEn= 0.00D+00
 Coeff-Com: -0.638D-03 0.103D-01-0.240D+00 0.123D+01
 Coeff:     -0.638D-03 0.103D-01-0.240D+00 0.123D+01
 Gap=     0.413 Goal=   None    Shift=    0.000
 RMSDP=5.32D-05 MaxDP=2.42D-04 DE=-1.59D-05 OVMax= 3.37D-04

 Cycle   5  Pass 1  IDiag  3:
 E= 0.602395915390716     Delta-E=       -0.000000794008 Rises=F Damp=F
 DIIS: error= 1.02D-05 at cycle   5 NSaved=   5.
 NSaved= 5 IEnMin= 5 EnMin= 0.602395915390716     IErMin= 5 ErrMin= 1.02D-05
 ErrMax= 1.02D-05  0.00D+00 EMaxC= 1.00D-01 BMatC= 7.29D-09 BMatP= 1.50D-07
 IDIUse=1 WtCom= 1.00D+00 WtEn= 0.00D+00
 Coeff-Com: -0.318D-02 0.110D-01 0.505D-01-0.508D+00 0.145D+01
 Coeff:     -0.318D-02 0.110D-01 0.505D-01-0.508D+00 0.145D+01
 Gap=     0.413 Goal=   None    Shift=    0.000
 RMSDP=1.29D-05 MaxDP=5.94D-05 DE=-7.94D-07 OVMax= 8.41D-05

 Cycle   6  Pass 1  IDiag  3:
 E= 0.602395875663206     Delta-E=       -0.000000039728 Rises=F Damp=F
 DIIS: error= 1.54D-06 at cycle   6 NSaved=   6.
 NSaved= 6 IEnMin= 6 EnMin= 0.602395875663206     IErMin= 6 ErrMin= 1.54D-06
 ErrMax= 1.54D-06  0.00D+00 EMaxC= 1.00D-01 BMatC= 2.07D-10 BMatP= 7.29D-09
 IDIUse=1 WtCom= 1.00D+00 WtEn= 0.00D+00
 Coeff-Com:  0.154D-02-0.548D-02-0.214D-01 0.236D+00-0.758D+00 0.155D+01
 Coeff:      0.154D-02-0.548D-02-0.214D-01 0.236D+00-0.758D+00 0.155D+01
 Gap=     0.413 Goal=   None    Shift=    0.000
 RMSDP=2.35D-06 MaxDP=1.23D-05 DE=-3.97D-08 OVMax= 1.92D-05

 Cycle   7  Pass 1  IDiag  3:
 E= 0.602395874459162     Delta-E=       -0.000000001204 Rises=F Damp=F
 DIIS: error= 3.80D-07 at cycle   7 NSaved=   7.
 NSaved= 7 IEnMin= 7 EnMin= 0.602395874459162     IErMin= 7 ErrMin= 3.80D-07
 ErrMax= 3.80D-07  0.00D+00 EMaxC= 1.00D-01 BMatC= 4.21D-12 BMatP= 2.07D-10
 IDIUse=1 WtCom= 1.00D+00 WtEn= 0.00D+00
 Coeff-Com: -0.608D-03 0.218D-02 0.796D-02-0.905D-01 0.295D+00-0.669D+00
 Coeff-Com:  0.146D+01
 Coeff:     -0.608D-03 0.218D-02 0.796D-02-0.905D-01 0.295D+00-0.669D+00
 Coeff:      0.146D+01
 Gap=     0.413 Goal=   None    Shift=    0.000
 RMSDP=3.43D-07 MaxDP=2.54D-06 DE=-1.20D-09 OVMax= 3.68D-06

 Cycle   8  Pass 1  IDiag  3:
 E= 0.602395874433611     Delta-E=       -0.000000000026 Rises=F Damp=F
 DIIS: error= 8.03D-08 at cycle   8 NSaved=   8.
 NSaved= 8 IEnMin= 8 EnMin= 0.602395874433611     IErMin= 8 ErrMin= 8.03D-08
 ErrMax= 8.03D-08  0.00D+00 EMaxC= 1.00D-01 BMatC= 1.60D-13 BMatP= 4.21D-12
 IDIUse=1 WtCom= 1.00D+00 WtEn= 0.00D+00
 Coeff-Com:  0.214D-03-0.765D-03-0.298D-02 0.331D-01-0.108D+00 0.246D+00
 Coeff-Com: -0.622D+00 0.145D+01
 Coeff:      0.214D-03-0.765D-03-0.298D-02 0.331D-01-0.108D+00 0.246D+00
 Coeff:     -0.622D+00 0.145D+01
 Gap=     0.413 Goal=   None    Shift=    0.000
 RMSDP=6.87D-08 MaxDP=5.47D-07 DE=-2.56D-11 OVMax= 6.45D-07

 Cycle   9  Pass 1  IDiag  3:
 E= 0.602395874432517     Delta-E=       -0.000000000001 Rises=F Damp=F
 DIIS: error= 1.98D-08 at cycle   9 NSaved=   9.
 NSaved= 9 IEnMin= 9 EnMin= 0.602395874432517     IErMin= 9 ErrMin= 1.98D-08
 ErrMax= 1.98D-08  0.00D+00 EMaxC= 1.00D-01 BMatC= 1.11D-14 BMatP= 1.60D-13
 IDIUse=1 WtCom= 1.00D+00 WtEn= 0.00D+00
 Coeff-Com: -0.727D-04 0.257D-03 0.110D-02-0.118D-01 0.381D-01-0.869D-01
 Coeff-Com:  0.225D+00-0.685D+00 0.152D+01
 Coeff:     -0.727D-04 0.257D-03 0.110D-02-0.118D-01 0.381D-01-0.869D-01
 Coeff:      0.225D+00-0.685D+00 0.152D+01
 Gap=     0.413 Goal=   None    Shift=    0.000
 RMSDP=2.00D-08 MaxDP=1.90D-07 DE=-1.09D-12 OVMax= 1.67D-07

 Cycle  10  Pass 1  IDiag  3:
 E= 0.602395874432588     Delta-E=        0.000000000000 Rises=F Damp=F
 DIIS: error= 6.64D-09 at cycle  10 NSaved=  10.
 NSaved=10 IEnMin= 9 EnMin= 0.602395874432517     IErMin=10 ErrMin= 6.64D-09
 ErrMax= 6.64D-09  0.00D+00 EMaxC= 1.00D-01 BMatC= 7.05D-16 BMatP= 1.11D-14
 IDIUse=1 WtCom= 1.00D+00 WtEn= 0.00D+00
 Coeff-Com:  0.107D-04-0.372D-04-0.188D-03 0.191D-02-0.608D-02 0.137D-01
 Coeff-Com: -0.349D-01 0.136D+00-0.547D+00 0.144D+01
 Coeff:      0.107D-04-0.372D-04-0.188D-03 0.191D-02-0.608D-02 0.137D-01
 Coeff:     -0.349D-01 0.136D+00-0.547D+00 0.144D+01
 Gap=     0.413 Goal=   None    Shift=    0.000
 RMSDP=5.14D-09 MaxDP=5.83D-08 DE= 7.11D-14 OVMax= 4.82D-08

 Cycle  11  Pass 2  IDiag  1:
 SCF Done:  E(RAM1) =  0.602395874433     A.U. after   11 cycles
            NFock= 10  Conv=0.51D-08     -V/T= 1.0379
 KE=-1.590536069251D+01 PE=-1.681883860622D+02 EE= 8.210665793525D+01
 Leave Link  502 at Thu Mar 17 12:25:38 2016, MaxMem=    33554432 cpu:         0.0
 (Enter /opt/g09/g09/l701.exe)
 Compute integral first derivatives.
 ... and contract with generalized density number  0.
 Leave Link  701 at Thu Mar 17 12:25:38 2016, MaxMem=    33554432 cpu:         0.0
 (Enter /opt/g09/g09/l702.exe)
 L702 exits ... SP integral derivatives will be done elsewhere.
 Leave Link  702 at Thu Mar 17 12:25:38 2016, MaxMem=    33554432 cpu:         0.0
 (Enter /opt/g09/g09/l703.exe)
 Compute integral first derivatives, UseDBF=F ICtDFT=           0.
 Integral derivatives from FoFJK, PRISM(SPDF).
 Calling FoFJK, ICntrl=      2127 FMM=F ISym2X=0 I1Cent= 0 IOpClX= 0 NMat=1 NMatS=1 NMatT=0.
 FoFJK:  IHMeth= 8 ICntrl=    2127 DoSepK=F KAlg= 0 I1Cent=   0 FoldK=F
 IRaf=         0 NMat=   1 IRICut=       1 DoRegI=T DoRafI=F ISym2E= 0.
 FoFCou: FMM=F IPFlag=           0 FMFlag=      100000 FMFlg1=         800
         NFxFlg=           0 DoJE=F BraDBF=F KetDBF=F FulRan=T
         wScrn=  0.000000 ICntrl=    2127 IOpCl=  0 I1Cent=           0 NGrid=           0
         NMat0=    1 NMatS0=      1 NMatT0=    0 NMatD0=    1 NMtDS0=    0 NMtDT0=    0
 Symmetry not used in FoFCou.
 Leave Link  703 at Thu Mar 17 12:25:38 2016, MaxMem=    33554432 cpu:         0.0
 (Enter /opt/g09/g09/l716.exe)
 Dipole        = 2.91453571D-02 3.91448916D-01 2.05359663D-02
 ***** Axes restored to original set *****
 -------------------------------------------------------------------
 Center     Atomic                   Forces (Hartrees/Bohr)
 Number     Number              X              Y              Z
 -------------------------------------------------------------------
      1        6           0.005199913    0.032853683   -0.001867238
      2        6          -0.004308853   -0.022610111    0.003548965
      3        8          -0.002466416    0.007736197    0.002433479
      4        6           0.008179959   -0.003922856   -0.002304512
      5        6          -0.027118791   -0.019728209   -0.006923244
      6        1           0.014085829    0.003458304    0.004199478
      7        1           0.000039613   -0.001644550    0.001208601
      8        1           0.004738543    0.010664594   -0.001635979
      9        1           0.001650204   -0.006807053    0.001340450
 -------------------------------------------------------------------
 Cartesian Forces:  Max     0.032853683 RMS     0.011231880
 Leave Link  716 at Thu Mar 17 12:25:38 2016, MaxMem=    33554432 cpu:         0.0
 (Enter /opt/g09/g09/l103.exe)

 GradGradGradGradGradGradGradGradGradGradGradGradGradGradGradGradGradGrad
 Berny optimization.
 Using GEDIIS/GDIIS optimizer.
 FormGI is forming the generalized inverse of G from B-inverse, IUseBI=4.
 Internal  Forces:  Max     0.018872079 RMS     0.005220067
 Search for a local minimum.
 Step number   2 out of a maximum of   48
 All quantities printed in internal units (Hartrees-Bohrs-Radians)
 RMS Force = .52201D-02 SwitMx=.10000D-02 MixMth= 1
 Mixed Optimization -- RFO/linear search
 Update second derivatives using D2CorX and points    1    2
 DE= -2.39D-02 DEPred=-2.70D-02 R= 8.85D-01
 TightC=F SS=  1.41D+00  RLast= 3.48D-01 DXNew= 5.0454D-01 1.0428D+00
 Trust test= 8.85D-01 RLast= 3.48D-01 DXMaxT set to 5.05D-01
 ITU=  1  0
 Use linear search instead of GDIIS.
     Eigenvalues ---    0.01405   0.01811   0.02165   0.02353   0.02586
     Eigenvalues ---    0.03035   0.15413   0.15964   0.15993   0.16310
     Eigenvalues ---    0.22062   0.24572   0.26513   0.29711   0.38161
     Eigenvalues ---    0.40476   0.41964   0.45534   0.48696   0.52906
     Eigenvalues ---    0.64144
 RFO step:  Lambda=-4.45740398D-03 EMin= 1.40482212D-02
 Quartic linear search produced a step of  0.19817.
 Iteration  1 RMS(Cart)=  0.03426481 RMS(Int)=  0.00292514
 Iteration  2 RMS(Cart)=  0.00186034 RMS(Int)=  0.00192606
 Iteration  3 RMS(Cart)=  0.00000605 RMS(Int)=  0.00192605
 Iteration  4 RMS(Cart)=  0.00000004 RMS(Int)=  0.00192605
 ITry= 1 IFail=0 DXMaxC= 1.13D-01 DCOld= 1.00D+10 DXMaxT= 5.05D-01 DXLimC= 3.00D+00 Rises=F
 Variable       Old X    -DE/DX   Delta X   Delta X   Delta X     New X
                                 (Linear)    (Quad)   (Total)
    R1        2.54533   0.00356   0.01373  -0.00457   0.00876   2.55410
    R2        2.78653  -0.01887  -0.01120  -0.06157  -0.07222   2.71431
    R3        2.08847   0.00497   0.01575   0.00066   0.01641   2.10488
    R4        2.64951   0.00497   0.01510  -0.00005   0.01427   2.66378
    R5        2.12050  -0.01166  -0.01455  -0.03536  -0.04991   2.07059
    R6        2.67935  -0.00226   0.01205  -0.01661  -0.00464   2.67472
    R7        2.57035  -0.00815  -0.00327  -0.01841  -0.02097   2.54938
    R8        2.08786  -0.00151   0.01904  -0.02228  -0.00323   2.08463
    R9        2.06759   0.01313   0.02142   0.01723   0.03866   2.10624
    A1        1.87888   0.00251   0.00246   0.01021   0.01329   1.89217
    A2        2.29147  -0.00627  -0.00530  -0.03672  -0.04278   2.24868
    A3        2.11231   0.00379   0.00289   0.02792   0.02997   2.14227
    A4        1.89200  -0.00467  -0.01430  -0.00302  -0.01766   1.87434
    A5        2.33541   0.00305   0.00326   0.01102   0.01432   2.34972
    A6        2.05530   0.00162   0.01096  -0.00730   0.00370   2.05900
    A7        1.90200  -0.00347   0.01055  -0.02062  -0.00998   1.89202
    A8        1.87305   0.00111  -0.01493   0.01419  -0.00053   1.87252
    A9        2.05948  -0.00123   0.01741  -0.02114  -0.00574   2.05374
   A10        2.35031   0.00017  -0.00190   0.00882   0.00504   2.35535
   A11        1.87882   0.00452   0.01649  -0.00063   0.01482   1.89364
   A12        2.21752  -0.00778  -0.01586  -0.02785  -0.04755   2.16998
   A13        2.18269   0.00351   0.00174   0.03873   0.03614   2.21883
    D1       -0.00218  -0.00023  -0.00993   0.01856   0.00954   0.00736
    D2       -3.10880  -0.00022  -0.00007  -0.00709  -0.00796  -3.11676
    D3       -3.10810  -0.00173  -0.01154  -0.02946  -0.03797   3.13712
    D4        0.06847  -0.00172  -0.00168  -0.05511  -0.05547   0.01301
    D5        0.00546  -0.00007   0.00592  -0.02314  -0.01772  -0.01226
    D6       -3.04164  -0.00319  -0.01314  -0.14199  -0.15097   3.09058
    D7        3.11577   0.00101   0.00708   0.01742   0.02452   3.14029
    D8        0.06867  -0.00211  -0.01198  -0.10143  -0.10874  -0.04006
    D9       -0.00171   0.00046   0.00993  -0.00797   0.00148  -0.00023
   D10        3.11136   0.00051   0.00192   0.01336   0.01592   3.12728
   D11        0.00519  -0.00052  -0.00572  -0.00693  -0.01259  -0.00740
   D12        3.12228   0.00107   0.00397   0.05775   0.06335  -3.09756
   D13       -0.00636   0.00033   0.00005   0.01774   0.01815   0.01179
   D14        3.04311   0.00260   0.01605   0.12913   0.15042  -3.08966
   D15       -3.11754  -0.00161  -0.01295  -0.06196  -0.07666   3.08899
   D16       -0.06807   0.00066   0.00304   0.04943   0.05561  -0.01246
         Item               Value     Threshold  Converged?
 Maximum Force            0.018872     0.000450     NO 
 RMS     Force            0.005220     0.000300     NO 
 Maximum Displacement     0.112984     0.001800     NO 
 RMS     Displacement     0.034804     0.001200     NO 
 Predicted change in Energy=-2.790844D-03
 Lowest energy point so far.  Saving SCF results.
 GradGradGradGradGradGradGradGradGradGradGradGradGradGradGradGradGradGrad

 Leave Link  103 at Thu Mar 17 12:25:38 2016, MaxMem=    33554432 cpu:         0.0
 (Enter /opt/g09/g09/l202.exe)
                          Input orientation:                          
 ---------------------------------------------------------------------
 Center     Atomic      Atomic             Coordinates (Angstroms)
 Number     Number       Type             X           Y           Z
 ---------------------------------------------------------------------
      1          6           0        0.921495   -0.736221    0.004483
      2          6           0       -0.363258   -1.155755    0.016433
      3          8           0       -1.181354   -0.007834    0.017666
      4          6           0       -0.347087    1.135504    0.006289
      5          6           0        0.929793    0.700100    0.007971
      6          1           0        1.853055    1.323265    0.047122
      7          1           0       -0.833232    2.124836    0.048687
      8          1           0       -0.852820   -2.135769    0.038311
      9          1           0        1.854865   -1.344077    0.003794
 ---------------------------------------------------------------------
                    Distance matrix (angstroms):
                    1          2          3          4          5
     1  C    0.000000
     2  C    1.351570   0.000000
     3  O    2.225466   1.409612   0.000000
     4  C    2.261119   2.291339   1.415399   0.000000
     5  C    1.436349   2.261913   2.226704   1.349075   0.000000
     6  H    2.260776   3.325436   3.313659   2.208517   1.114576
     7  H    3.356586   3.314241   2.161118   1.103137   2.267110
     8  H    2.260105   1.095709   2.153246   3.310290   3.349744
     9  H    1.113853   2.226139   3.317283   3.316161   2.243755
                    6          7          8          9
     6  H    0.000000
     7  H    2.803330   0.000000
     8  H    4.391669   4.260663   0.000000
     9  H    2.667695   4.388763   2.821264   0.000000
 Stoichiometry    C4H4O
 Framework group  C1[X(C4H4O)]
 Deg. of freedom    21
 Full point group                 C1      NOp   1
 RotChk:  IX=2 Diff= 2.43D-02
 Largest Abelian subgroup         C1      NOp   1
 Largest concise Abelian subgroup C1      NOp   1
                         Standard orientation:                         
 ---------------------------------------------------------------------
 Center     Atomic      Atomic             Coordinates (Angstroms)
 Number     Number       Type             X           Y           Z
 ---------------------------------------------------------------------
      1          6           0       -0.705368    0.951978    0.005052
      2          6           0       -1.150427   -0.324192   -0.002384
      3          8           0       -0.019047   -1.165010    0.000342
      4          6           0        1.140691   -0.353666    0.009455
      5          6           0        0.730835    0.931625    0.002633
      6          1           0        1.372313    1.842125   -0.039515
      7          1           0        2.120162   -0.859595   -0.030355
      8          1           0       -2.139993   -0.794198   -0.023170
      9          1           0       -1.294493    1.897277    0.001762
 ---------------------------------------------------------------------
 Rotational constants (GHZ):      9.3363066      8.9258831      4.5636005
 Leave Link  202 at Thu Mar 17 12:25:38 2016, MaxMem=    33554432 cpu:         0.0
 (Enter /opt/g09/g09/l301.exe)

 Semi-emprical parameters in input format:
 Method=8 CoreType=1 PeptideFC=0.0121627755 RIJScale=0.5329692868
 ****
 H       
 PQN=1 NValence=1 F0ss=0.4596102662 ZetaOverlap=1.1592993284 U=-0.4315264548
 Beta=-0.2574815583 CoreKO=1.0589197790 KON=0,0,0,1.0446607980 KON=1,0,1,1.2026196827
 KON=0,1,1,0.9852480286 KON=2,1,1,1.0739077844 EISol=-0.4188110042 EHeat=0.0830298228
 Alpha=1.3265785197
 GCore=0.0066345782,1.4001425905,2.4702535464
 GCore=0.0003578457,1.4001425905,3.4015070392
 GCore=-0.0013248148,0.5311011039,3.4444930193
 ****
 C       
 PQN=2,2 NValence=4 F0ss=0.4280809825 F0sp=0.4354185183 F0pp=0.3443629353 F2pp=0.1874607059
 G1sp=0.2978928175
 ZetaOverlap=2.0385029058,1.5129290938
 U=-1.6710041047,-1.4560985900
 Beta=-0.6224486609,-0.3273443342 DDN=0,1,0.7627154330 DDN=1,1,0.7406048937
 CoreKO=1.1295849289 KON=0,0,0,1.1424307781 KON=1,0,1,0.7209071901 KON=0,1,1,1.1315783315
 KON=2,1,1,0.8096510931 EISol=-4.4398989268 EHeat=0.2723305520 Alpha=1.3390660019
 DipHyp=1.5253431066
 GCore=0.0008612005,1.5839209328,3.3965438871
 GCore=0.0031892455,1.5820975212,3.6106140366
 GCore=-0.0014610573,1.5106511485,3.5277311610
 GCore=-0.0000912823,1.3076823148,5.3686734941
 ****
 O       
 PQN=2,2 NValence=6 F0ss=0.5445226887 F0sp=0.5423941178 F0pp=0.4690460152 F2pp=0.2512047460
 G1sp=0.4365302021
 ZetaOverlap=3.1537499085,2.5627595232
 U=-3.2874974178,-2.9110223154
 Beta=-1.1824627399,-1.1994404385 DDN=0,1,0.4533663278 DDN=1,1,0.5416053721
 CoreKO=0.8822957477 KON=0,0,0,0.8801278439 KON=1,0,1,0.5396004592 KON=0,1,1,0.8822957477
 KON=2,1,1,0.5515584117 EISol=-11.6164441184 EHeat=0.0949133088 Alpha=2.0516420562
 DipHyp=0.9066804905
 GCore=0.0192698894,1.0058365967,1.6548979063
 GCore=0.0071015025,1.9056828561,2.6643272210
 ****
 
 Standard basis: VSTO-6G (5D, 7F)
 Ernie: Thresh=  0.10000D-02 Tol=  0.10000D-05 Strict=F.
  NNHCO=     0 NNPyr=     0 NCTC=     0               EPep=         0.000000000
    EC=        67.761139402  ECS=         2.122672456   EG=         0.366190612
   EHC=         0.000000000  EAt=       -31.051283842  AtH=         1.516354808
 EPDDG=         0.000000000  ECC=        70.250002469 EAtT=        32.567638650
 There are    24 symmetry adapted cartesian basis functions of A   symmetry.
 There are    24 symmetry adapted basis functions of A   symmetry.
    24 basis functions,   144 primitive gaussians,    24 cartesian basis functions
    13 alpha electrons       13 beta electrons
       nuclear repulsion energy       102.8176411198 Hartrees.
 IExCor=    0 DFT=F Ex=HF Corr=None ExCW=0 ScaHFX=  1.000000
 ScaDFX=  1.000000  1.000000  1.000000  1.000000 ScalE2=  1.000000  1.000000
 IRadAn=      0 IRanWt=     -1 IRanGd=            0 ICorTp=0 IEmpDi=  4
 Integral buffers will be    131072 words long.
 Regular integral format.
 Two-electron integral symmetry is turned off.
 Leave Link  301 at Thu Mar 17 12:25:38 2016, MaxMem=    33554432 cpu:         0.0
 (Enter /opt/g09/g09/l302.exe)
 Do NDO integrals.
 NPDir=0 NMtPBC=     1 NCelOv=     1 NCel=       1 NClECP=     1 NCelD=      1
         NCelK=      1 NCelE2=     1 NClLst=     1 CellRange=     0.0.
 One-electron integrals computed using PRISM.
 NBasis=    24 RedAO= F EigKep=  0.00D+00  NBF=    24
 NBsUse=    24 1.00D-04 EigRej=  0.00D+00 NBFU=    24
 Leave Link  302 at Thu Mar 17 12:25:38 2016, MaxMem=    33554432 cpu:         0.0
 (Enter /opt/g09/g09/l303.exe)
 DipDrv:  MaxL=1.
 Leave Link  303 at Thu Mar 17 12:25:38 2016, MaxMem=    33554432 cpu:         0.0
 (Enter /opt/g09/g09/l401.exe)
 Initial guess from the checkpoint file:  "/opt/g09/scratch/Gau-1874.chk"
 B after Tr=     0.000000    0.000000    0.000000
         Rot=    0.999995    0.000006    0.000016   -0.003221 Ang=   0.37 deg.
 Guess basis will be translated and rotated to current coordinates.
 JPrj=0 DoOrth=T DoCkMO=T.
 Leave Link  401 at Thu Mar 17 12:25:38 2016, MaxMem=    33554432 cpu:         0.0
 (Enter /opt/g09/g09/l502.exe)
 Closed shell SCF:
 Using DIIS extrapolation, IDIIS=  1040.
 Overlap will be assumed to be unity.
 Two-electron integral symmetry not used.
 Keep J ints in memory in canonical form, NReq=888082.
 IVT=       79475 IEndB=       79475 NGot=    33554432 MDV=    33473473
 LenX=    33473473 LenY=    33472456
 Requested convergence on RMS density matrix=1.00D-08 within 128 cycles.
 Requested convergence on MAX density matrix=1.00D-06.
 Requested convergence on             energy=1.00D-06.
 No special actions if energy rises.
 FoFCou: FMM=F IPFlag=           0 FMFlag=           0 FMFlg1=           0
         NFxFlg=           0 DoJE=F BraDBF=F KetDBF=F FulRan=T
         wScrn=  0.000000 ICntrl=     600 IOpCl=  2 I1Cent=           0 NGrid=           0
         NMat0=    1 NMatS0=     54 NMatT0=    0 NMatD0=    1 NMtDS0=    0 NMtDT0=    0
 Symmetry not used in FoFCou.

 Cycle   1  Pass 1  IDiag  1:
 E= 0.603414248286796    
 DIIS: error= 4.55D-03 at cycle   1 NSaved=   1.
 NSaved= 1 IEnMin= 1 EnMin= 0.603414248286796     IErMin= 1 ErrMin= 4.55D-03
 ErrMax= 4.55D-03  0.00D+00 EMaxC= 1.00D-01 BMatC= 7.93D-04 BMatP= 7.93D-04
 IDIUse=3 WtCom= 9.55D-01 WtEn= 4.55D-02
 Coeff-Com:  0.100D+01
 Coeff-En:   0.100D+01
 Coeff:      0.100D+01
 GapD=    2.000 DampG=2.000 DampE=1.000 DampFc=2.0000 IDamp=-1.
 RMSDP=1.93D-03 MaxDP=1.41D-02              OVMax= 0.00D+00

 Cycle   2  Pass 1  IDiag  3:
 E= 0.601060259697363     Delta-E=       -0.002353988589 Rises=F Damp=F
 DIIS: error= 1.66D-03 at cycle   2 NSaved=   2.
 NSaved= 2 IEnMin= 2 EnMin= 0.601060259697363     IErMin= 2 ErrMin= 1.66D-03
 ErrMax= 1.66D-03  0.00D+00 EMaxC= 1.00D-01 BMatC= 8.40D-05 BMatP= 7.93D-04
 IDIUse=3 WtCom= 9.83D-01 WtEn= 1.66D-02
 Coeff-Com: -0.430D+00 0.143D+01
 Coeff-En:   0.000D+00 0.100D+01
 Coeff:     -0.423D+00 0.142D+01
 Gap=     0.410 Goal=   None    Shift=    0.000
 RMSDP=1.04D-03 MaxDP=8.21D-03 DE=-2.35D-03 OVMax= 4.84D-03

 Cycle   3  Pass 1  IDiag  3:
 E= 0.600709549474289     Delta-E=       -0.000350710223 Rises=F Damp=F
 DIIS: error= 2.89D-04 at cycle   3 NSaved=   3.
 NSaved= 3 IEnMin= 3 EnMin= 0.600709549474289     IErMin= 3 ErrMin= 2.89D-04
 ErrMax= 2.89D-04  0.00D+00 EMaxC= 1.00D-01 BMatC= 2.34D-06 BMatP= 8.40D-05
 IDIUse=3 WtCom= 9.97D-01 WtEn= 2.89D-03
 Coeff-Com:  0.222D+00-0.808D+00 0.159D+01
 Coeff-En:   0.000D+00 0.000D+00 0.100D+01
 Coeff:      0.221D+00-0.805D+00 0.158D+01
 Gap=     0.410 Goal=   None    Shift=    0.000
 RMSDP=2.56D-04 MaxDP=1.77D-03 DE=-3.51D-04 OVMax= 1.60D-03

 Cycle   4  Pass 1  IDiag  3:
 E= 0.600695145441932     Delta-E=       -0.000014404032 Rises=F Damp=F
 DIIS: error= 3.33D-05 at cycle   4 NSaved=   4.
 NSaved= 4 IEnMin= 4 EnMin= 0.600695145441932     IErMin= 4 ErrMin= 3.33D-05
 ErrMax= 3.33D-05  0.00D+00 EMaxC= 1.00D-01 BMatC= 5.46D-08 BMatP= 2.34D-06
 IDIUse=1 WtCom= 1.00D+00 WtEn= 0.00D+00
 Coeff-Com: -0.616D-01 0.228D+00-0.528D+00 0.136D+01
 Coeff:     -0.616D-01 0.228D+00-0.528D+00 0.136D+01
 Gap=     0.410 Goal=   None    Shift=    0.000
 RMSDP=3.81D-05 MaxDP=2.10D-04 DE=-1.44D-05 OVMax= 2.69D-04

 Cycle   5  Pass 1  IDiag  3:
 E= 0.600694809505100     Delta-E=       -0.000000335937 Rises=F Damp=F
 DIIS: error= 8.17D-06 at cycle   5 NSaved=   5.
 NSaved= 5 IEnMin= 5 EnMin= 0.600694809505100     IErMin= 5 ErrMin= 8.17D-06
 ErrMax= 8.17D-06  0.00D+00 EMaxC= 1.00D-01 BMatC= 2.45D-09 BMatP= 5.46D-08
 IDIUse=1 WtCom= 1.00D+00 WtEn= 0.00D+00
 Coeff-Com:  0.223D-02-0.863D-02 0.316D-01-0.270D+00 0.125D+01
 Coeff:      0.223D-02-0.863D-02 0.316D-01-0.270D+00 0.125D+01
 Gap=     0.410 Goal=   None    Shift=    0.000
 RMSDP=8.06D-06 MaxDP=6.24D-05 DE=-3.36D-07 OVMax= 8.01D-05

 Cycle   6  Pass 1  IDiag  3:
 E= 0.600694793601562     Delta-E=       -0.000000015904 Rises=F Damp=F
 DIIS: error= 2.53D-06 at cycle   6 NSaved=   6.
 NSaved= 6 IEnMin= 6 EnMin= 0.600694793601562     IErMin= 6 ErrMin= 2.53D-06
 ErrMax= 2.53D-06  0.00D+00 EMaxC= 1.00D-01 BMatC= 2.18D-10 BMatP= 2.45D-09
 IDIUse=1 WtCom= 1.00D+00 WtEn= 0.00D+00
 Coeff-Com:  0.210D-02-0.765D-02 0.136D-01 0.453D-01-0.558D+00 0.151D+01
 Coeff:      0.210D-02-0.765D-02 0.136D-01 0.453D-01-0.558D+00 0.151D+01
 Gap=     0.410 Goal=   None    Shift=    0.000
 RMSDP=2.75D-06 MaxDP=2.45D-05 DE=-1.59D-08 OVMax= 2.69D-05

 Cycle   7  Pass 1  IDiag  3:
 E= 0.600694792047179     Delta-E=       -0.000000001554 Rises=F Damp=F
 DIIS: error= 6.16D-07 at cycle   7 NSaved=   7.
 NSaved= 7 IEnMin= 7 EnMin= 0.600694792047179     IErMin= 7 ErrMin= 6.16D-07
 ErrMax= 6.16D-07  0.00D+00 EMaxC= 1.00D-01 BMatC= 1.37D-11 BMatP= 2.18D-10
 IDIUse=1 WtCom= 1.00D+00 WtEn= 0.00D+00
 Coeff-Com: -0.134D-02 0.492D-02-0.964D-02-0.108D-01 0.247D+00-0.843D+00
 Coeff-Com:  0.161D+01
 Coeff:     -0.134D-02 0.492D-02-0.964D-02-0.108D-01 0.247D+00-0.843D+00
 Coeff:      0.161D+01
 Gap=     0.410 Goal=   None    Shift=    0.000
 RMSDP=7.31D-07 MaxDP=6.66D-06 DE=-1.55D-09 OVMax= 6.05D-06

 Cycle   8  Pass 1  IDiag  3:
 E= 0.600694791948484     Delta-E=       -0.000000000099 Rises=F Damp=F
 DIIS: error= 1.51D-07 at cycle   8 NSaved=   8.
 NSaved= 8 IEnMin= 8 EnMin= 0.600694791948484     IErMin= 8 ErrMin= 1.51D-07
 ErrMax= 1.51D-07  0.00D+00 EMaxC= 1.00D-01 BMatC= 5.72D-13 BMatP= 1.37D-11
 IDIUse=1 WtCom= 1.00D+00 WtEn= 0.00D+00
 Coeff-Com:  0.516D-03-0.190D-02 0.380D-02 0.340D-02-0.929D-01 0.333D+00
 Coeff-Com: -0.772D+00 0.153D+01
 Coeff:      0.516D-03-0.190D-02 0.380D-02 0.340D-02-0.929D-01 0.333D+00
 Coeff:     -0.772D+00 0.153D+01
 Gap=     0.410 Goal=   None    Shift=    0.000
 RMSDP=1.46D-07 MaxDP=1.44D-06 DE=-9.87D-11 OVMax= 1.56D-06

 Cycle   9  Pass 1  IDiag  3:
 E= 0.600694791944434     Delta-E=       -0.000000000004 Rises=F Damp=F
 DIIS: error= 3.62D-08 at cycle   9 NSaved=   9.
 NSaved= 9 IEnMin= 9 EnMin= 0.600694791944434     IErMin= 9 ErrMin= 3.62D-08
 ErrMax= 3.62D-08  0.00D+00 EMaxC= 1.00D-01 BMatC= 3.67D-14 BMatP= 5.72D-13
 IDIUse=1 WtCom= 1.00D+00 WtEn= 0.00D+00
 Coeff-Com: -0.207D-03 0.765D-03-0.151D-02-0.185D-02 0.409D-01-0.144D+00
 Coeff-Com:  0.341D+00-0.829D+00 0.159D+01
 Coeff:     -0.207D-03 0.765D-03-0.151D-02-0.185D-02 0.409D-01-0.144D+00
 Coeff:      0.341D+00-0.829D+00 0.159D+01
 Gap=     0.410 Goal=   None    Shift=    0.000
 RMSDP=3.74D-08 MaxDP=3.55D-07 DE=-4.05D-12 OVMax= 3.92D-07

 Cycle  10  Pass 1  IDiag  3:
 E= 0.600694791943937     Delta-E=        0.000000000000 Rises=F Damp=F
 DIIS: error= 8.28D-09 at cycle  10 NSaved=  10.
 NSaved=10 IEnMin=10 EnMin= 0.600694791943937     IErMin=10 ErrMin= 8.28D-09
 ErrMax= 8.28D-09  0.00D+00 EMaxC= 1.00D-01 BMatC= 2.17D-15 BMatP= 3.67D-14
 IDIUse=1 WtCom= 1.00D+00 WtEn= 0.00D+00
 Coeff-Com:  0.690D-04-0.255D-03 0.491D-03 0.922D-03-0.160D-01 0.545D-01
 Coeff-Com: -0.129D+00 0.333D+00-0.817D+00 0.157D+01
 Coeff:      0.690D-04-0.255D-03 0.491D-03 0.922D-03-0.160D-01 0.545D-01
 Coeff:     -0.129D+00 0.333D+00-0.817D+00 0.157D+01
 Gap=     0.410 Goal=   None    Shift=    0.000
 RMSDP=9.59D-09 MaxDP=9.53D-08 DE=-4.97D-13 OVMax= 9.26D-08

 Cycle  11  Pass 2  IDiag  1:
 SCF Done:  E(RAM1) =  0.600694791944     A.U. after   11 cycles
            NFock= 10  Conv=0.96D-08     -V/T= 1.0377
 KE=-1.593431413521D+01 PE=-1.685745308770D+02 EE= 8.229189868438D+01
 Leave Link  502 at Thu Mar 17 12:25:38 2016, MaxMem=    33554432 cpu:         0.0
 (Enter /opt/g09/g09/l701.exe)
 Compute integral first derivatives.
 ... and contract with generalized density number  0.
 Leave Link  701 at Thu Mar 17 12:25:38 2016, MaxMem=    33554432 cpu:         0.0
 (Enter /opt/g09/g09/l702.exe)
 L702 exits ... SP integral derivatives will be done elsewhere.
 Leave Link  702 at Thu Mar 17 12:25:38 2016, MaxMem=    33554432 cpu:         0.0
 (Enter /opt/g09/g09/l703.exe)
 Compute integral first derivatives, UseDBF=F ICtDFT=           0.
 Integral derivatives from FoFJK, PRISM(SPDF).
 Calling FoFJK, ICntrl=      2127 FMM=F ISym2X=0 I1Cent= 0 IOpClX= 0 NMat=1 NMatS=1 NMatT=0.
 FoFJK:  IHMeth= 8 ICntrl=    2127 DoSepK=F KAlg= 0 I1Cent=   0 FoldK=F
 IRaf=         0 NMat=   1 IRICut=       1 DoRegI=T DoRafI=F ISym2E= 0.
 FoFCou: FMM=F IPFlag=           0 FMFlag=      100000 FMFlg1=         800
         NFxFlg=           0 DoJE=F BraDBF=F KetDBF=F FulRan=T
         wScrn=  0.000000 ICntrl=    2127 IOpCl=  0 I1Cent=           0 NGrid=           0
         NMat0=    1 NMatS0=      1 NMatT0=    0 NMatD0=    1 NMtDS0=    0 NMtDT0=    0
 Symmetry not used in FoFCou.
 Leave Link  703 at Thu Mar 17 12:25:38 2016, MaxMem=    33554432 cpu:         0.0
 (Enter /opt/g09/g09/l716.exe)
 Dipole        = 1.89686431D-02 4.36020118D-01-1.82362559D-02
 ***** Axes restored to original set *****
 -------------------------------------------------------------------
 Center     Atomic                   Forces (Hartrees/Bohr)
 Number     Number              X              Y              Z
 -------------------------------------------------------------------
      1        6           0.007181013   -0.008983562    0.000691162
      2        6          -0.000019044   -0.003264582    0.000209070
      3        8          -0.002354249    0.002525718   -0.001981498
      4        6          -0.007639984    0.005729037    0.005587267
      5        6           0.006833676    0.011782774    0.001241878
      6        1           0.000636792    0.000319342   -0.002364529
      7        1          -0.000566403    0.000622177   -0.002459558
      8        1          -0.003229036   -0.005821001   -0.000665049
      9        1          -0.000842765   -0.002909903   -0.000258742
 -------------------------------------------------------------------
 Cartesian Forces:  Max     0.011782774 RMS     0.004454029
 Leave Link  716 at Thu Mar 17 12:25:38 2016, MaxMem=    33554432 cpu:         0.0
 (Enter /opt/g09/g09/l103.exe)

 GradGradGradGradGradGradGradGradGradGradGradGradGradGradGradGradGradGrad
 Berny optimization.
 Using GEDIIS/GDIIS optimizer.
 FormGI is forming the generalized inverse of G from B-inverse, IUseBI=4.
 Internal  Forces:  Max     0.014828046 RMS     0.003589557
 Search for a local minimum.
 Step number   3 out of a maximum of   48
 All quantities printed in internal units (Hartrees-Bohrs-Radians)
 RMS Force = .35896D-02 SwitMx=.10000D-02 MixMth= 1
 Mixed Optimization -- RFO/linear search
 Update second derivatives using D2CorX and points    1    2    3
 DE= -1.70D-03 DEPred=-2.79D-03 R= 6.10D-01
 TightC=F SS=  1.41D+00  RLast= 3.07D-01 DXNew= 8.4853D-01 9.2055D-01
 Trust test= 6.10D-01 RLast= 3.07D-01 DXMaxT set to 8.49D-01
 ITU=  1  1  0
 Use linear search instead of GDIIS.
     Eigenvalues ---    0.01559   0.01801   0.02200   0.02340   0.02794
     Eigenvalues ---    0.03002   0.13091   0.15993   0.16072   0.16301
     Eigenvalues ---    0.21966   0.24292   0.27998   0.35202   0.37939
     Eigenvalues ---    0.39601   0.41426   0.45727   0.48201   0.54838
     Eigenvalues ---    0.64042
 RFO step:  Lambda=-7.83888128D-04 EMin= 1.55873687D-02
 Quartic linear search produced a step of -0.27838.
 Iteration  1 RMS(Cart)=  0.01921177 RMS(Int)=  0.00062051
 Iteration  2 RMS(Cart)=  0.00037061 RMS(Int)=  0.00050652
 Iteration  3 RMS(Cart)=  0.00000012 RMS(Int)=  0.00050652
 ITry= 1 IFail=0 DXMaxC= 5.96D-02 DCOld= 1.00D+10 DXMaxT= 8.49D-01 DXLimC= 3.00D+00 Rises=F
 Variable       Old X    -DE/DX   Delta X   Delta X   Delta X     New X
                                 (Linear)    (Quad)   (Total)
    R1        2.55410   0.00602  -0.00244   0.01156   0.00909   2.56319
    R2        2.71431   0.01483   0.02011   0.00503   0.02498   2.73929
    R3        2.10488   0.00088  -0.00457   0.00930   0.00474   2.10961
    R4        2.66378   0.00624  -0.00397   0.01541   0.01158   2.67536
    R5        2.07059   0.00664   0.01390  -0.00339   0.01051   2.08110
    R6        2.67472   0.00304   0.00129   0.00317   0.00458   2.67930
    R7        2.54938   0.00885   0.00584   0.00415   0.00991   2.55929
    R8        2.08463   0.00071   0.00090   0.00107   0.00197   2.08660
    R9        2.10624   0.00062  -0.01076   0.01812   0.00736   2.11360
    A1        1.89217  -0.00104  -0.00370   0.00348  -0.00050   1.89167
    A2        2.24868  -0.00252   0.01191  -0.03110  -0.01902   2.22966
    A3        2.14227   0.00357  -0.00834   0.02772   0.01953   2.16180
    A4        1.87434  -0.00075   0.00492  -0.01029  -0.00545   1.86890
    A5        2.34972   0.00068  -0.00399   0.00877   0.00477   2.35449
    A6        2.05900   0.00008  -0.00103   0.00185   0.00080   2.05980
    A7        1.89202   0.00405   0.00278   0.00728   0.01020   1.90222
    A8        1.87252  -0.00095   0.00015  -0.00359  -0.00408   1.86843
    A9        2.05374   0.00025   0.00160  -0.00008   0.00103   2.05477
   A10        2.35535   0.00084  -0.00140   0.00640   0.00451   2.35986
   A11        1.89364  -0.00130  -0.00412   0.00346  -0.00034   1.89330
   A12        2.16998   0.00058   0.01324  -0.01990  -0.00585   2.16412
   A13        2.21883   0.00075  -0.01006   0.01607   0.00686   2.22569
    D1        0.00736  -0.00013  -0.00266  -0.00687  -0.00975  -0.00239
    D2       -3.11676  -0.00104   0.00222  -0.03156  -0.02906   3.13736
    D3        3.13712   0.00097   0.01057   0.00324   0.01278  -3.13328
    D4        0.01301   0.00006   0.01544  -0.02145  -0.00653   0.00648
    D5       -0.01226   0.00075   0.00493   0.02217   0.02735   0.01509
    D6        3.09058   0.00181   0.04203   0.01281   0.05397  -3.13863
    D7        3.14029  -0.00022  -0.00683   0.01328   0.00620  -3.13670
    D8       -0.04006   0.00085   0.03027   0.00392   0.03283  -0.00724
    D9       -0.00023  -0.00051  -0.00041  -0.01005  -0.01032  -0.01055
   D10        3.12728   0.00024  -0.00443   0.00996   0.00523   3.13251
   D11       -0.00740   0.00095   0.00351   0.02390   0.02737   0.01996
   D12       -3.09756  -0.00137  -0.01763  -0.02065  -0.03842  -3.13598
   D13        0.01179  -0.00104  -0.00505  -0.02781  -0.03287  -0.02109
   D14       -3.08966  -0.00214  -0.04187  -0.01708  -0.06034   3.13319
   D15        3.08899   0.00182   0.02134   0.02758   0.04954   3.13853
   D16       -0.01246   0.00073  -0.01548   0.03830   0.02208   0.00962
         Item               Value     Threshold  Converged?
 Maximum Force            0.014828     0.000450     NO 
 RMS     Force            0.003590     0.000300     NO 
 Maximum Displacement     0.059632     0.001800     NO 
 RMS     Displacement     0.019177     0.001200     NO 
 Predicted change in Energy=-7.125821D-04
 Lowest energy point so far.  Saving SCF results.
 GradGradGradGradGradGradGradGradGradGradGradGradGradGradGradGradGradGrad

 Leave Link  103 at Thu Mar 17 12:25:38 2016, MaxMem=    33554432 cpu:         0.0
 (Enter /opt/g09/g09/l202.exe)
                          Input orientation:                          
 ---------------------------------------------------------------------
 Center     Atomic      Atomic             Coordinates (Angstroms)
 Number     Number       Type             X           Y           Z
 ---------------------------------------------------------------------
      1          6           0        0.927259   -0.738637    0.019968
      2          6           0       -0.361306   -1.162153    0.017940
      3          8           0       -1.178879   -0.006347    0.017365
      4          6           0       -0.350870    1.144467    0.033255
[...]
     X     X                    X                                                       X                                            
     X     X                    X                                                                                                    
     X     X                    X                                                                                                    
     X     X                    X                                                                                                    
     X     X                    X                                                                                                    
     X     X                                                                                                                         
     X     X                                                                                                                         
     X     X                                                                                                                         
           X                                                                                                                         
 
 ***** Axes restored to original set *****
 -------------------------------------------------------------------
 Center     Atomic                   Forces (Hartrees/Bohr)
 Number     Number              X              Y              Z
 -------------------------------------------------------------------
      1        6           0.101980402    0.131944011    0.006322560
      2        6          -0.101503939   -0.110279682   -0.003282720
      3        8          -0.050211986    0.005386493    0.001507213
      4        6          -0.021287527    0.024464239    0.000656988
      5        6          -0.015671473   -0.125738844   -0.007253302
      6        1           0.052577205    0.028794736    0.001205183
      7        1          -0.013781744    0.048984040    0.000029034
      8        1           0.017152018    0.022212247    0.001358205
      9        1           0.030747044   -0.025767241   -0.000543162
 -------------------------------------------------------------------
 Cartesian Forces:  Max     0.131944011 RMS     0.053961951
 Z-matrix is all fixed cartesians, so copy forces.
 Force constants in Cartesian coordinates: 
                1             2             3             4             5 
      1  0.116353D+01
      2 -0.104203D+00  0.551111D+00
      3 -0.105282D-01  0.127681D-01  0.136926D+00
      4 -0.615801D+00 -0.106921D+00 -0.349138D-02  0.876805D+00
      5 -0.193024D+00 -0.883691D-01  0.446335D-03  0.185284D+00  0.646144D+00
      6 -0.735887D-02 -0.360607D-02 -0.741504D-01  0.110150D-01  0.313158D-02
      7 -0.109282D+00  0.559430D-01 -0.121762D-02 -0.174068D+00  0.189304D+00
      8  0.868923D-01  0.189511D-01  0.178684D-02  0.246902D-01 -0.166178D+00
      9 -0.312838D-02  0.853516D-05  0.208752D-01 -0.293449D-02  0.798796D-02
     10 -0.839808D-01  0.416892D-01  0.104285D-02  0.138591D+00 -0.468114D-01
     11  0.578866D-01 -0.532826D-01 -0.415228D-02  0.392467D-01 -0.140917D+00
     12  0.612572D-02  0.279600D-02  0.332268D-01 -0.400166D-02 -0.373701D-02
     13 -0.375480D-01 -0.231506D-01 -0.168626D-02 -0.855524D-01 -0.596661D-01
     14  0.159171D-01 -0.252173D+00 -0.340808D-02 -0.569844D-01 -0.542797D-01
     15  0.771200D-02 -0.546413D-03 -0.107631D+00 -0.639852D-02 -0.348935D-02
     16  0.755804D-03 -0.730605D-02  0.365091D-03 -0.256331D-03  0.118947D-02
     17 -0.238418D-01 -0.281059D-01  0.153810D-02  0.168473D-04 -0.365755D-02
     18 -0.415327D-02 -0.258355D-02  0.114552D-01  0.537585D-02 -0.764169D-03
     19 -0.289915D-02  0.111421D-02  0.874684D-03  0.133845D-02 -0.282259D-02
     20 -0.156835D-03  0.510137D-04  0.387985D-03 -0.114787D-02 -0.370964D-02
     21 -0.409106D-02 -0.162870D-02 -0.817266D-02  0.227881D-02 -0.409585D-03
     22 -0.232422D-01 -0.298162D-01 -0.716358D-03 -0.996081D-01 -0.892907D-01
     23 -0.166959D-01 -0.111884D-01 -0.725974D-03 -0.850396D-01 -0.197504D+00
     24 -0.607936D-03  0.140807D-02  0.255151D-01 -0.277318D-03 -0.205265D-02
     25 -0.291531D+00  0.172650D+00  0.153572D-01 -0.414484D-01  0.158373D-01
     26  0.177226D+00 -0.136994D+00 -0.864101D-02  0.854367D-03  0.847188D-02
     27  0.160300D-01 -0.861593D-02 -0.380437D-01 -0.156630D-02 -0.111309D-02
                6             7             8             9            10 
      6  0.129742D+00
      7 -0.251798D-02  0.528132D+00
      8  0.311834D-02 -0.362189D-01  0.404654D+00
      9 -0.372702D-01  0.214479D-01  0.517262D-02  0.326824D-02
     10 -0.234447D-03 -0.144967D+00  0.316154D-02 -0.438659D-02  0.723409D+00
     11 -0.192701D-04 -0.159809D+00 -0.133649D+00 -0.109659D-01 -0.258247D+00
     12  0.104703D-02 -0.112129D-01 -0.928029D-02 -0.423372D-01  0.216504D-01
     13 -0.235040D-02 -0.107371D+00 -0.718752D-01 -0.966404D-02 -0.470814D+00
     14 -0.133500D-02 -0.441116D-01  0.175236D-01 -0.304598D-02  0.932169D-01
     15  0.304840D-01 -0.779768D-02 -0.104460D-02  0.151995D-01 -0.106584D-01
     16  0.336122D-03 -0.398253D-02 -0.201675D-02 -0.208633D-03 -0.429581D-01
     17 -0.121349D-03  0.215684D-02  0.179579D-02  0.991130D-03 -0.337813D-02
     18  0.616652D-02  0.142557D-02  0.208555D-02 -0.526593D-03 -0.613479D-03
     19  0.199824D-03  0.792494D-02 -0.225977D-01 -0.808307D-03 -0.119814D+00
     20 -0.595872D-04 -0.475717D-02 -0.807447D-01 -0.253815D-03  0.169320D+00
     21 -0.400357D-02  0.116877D-02 -0.615005D-03  0.224983D-01 -0.918871D-02
     22 -0.850994D-04  0.755323D-02  0.160661D-01 -0.691415D-03  0.113125D-02
     23 -0.107542D-02 -0.449384D-03 -0.642622D-01  0.403994D-03  0.148790D-02
     24 -0.638374D-01 -0.104079D-02  0.252266D-03  0.166738D-01 -0.197137D-02
     25  0.995878D-03 -0.394040D-02  0.189865D-02  0.373914D-03 -0.597595D-03
     26 -0.332168D-04 -0.205777D-02  0.191015D-02 -0.298537D-03 -0.439404D-03
     27  0.118224D-01 -0.255161D-03 -0.147558D-02  0.161897D-02  0.435961D-02
               11            12            13            14            15 
     11  0.748667D+00
     12 -0.764244D-02  0.125744D+00
     13  0.160247D+00 -0.623742D-02  0.100452D+01
     14 -0.108018D+00  0.226495D-02  0.166456D+00  0.627971D+00
     15  0.341704D-02 -0.999049D-01 -0.138110D-01 -0.222171D-01  0.153700D+00
     16 -0.150250D-01  0.254889D-02 -0.276709D+00 -0.214433D+00  0.340284D-01
     17  0.795654D-02 -0.509344D-03 -0.211975D+00 -0.189295D+00  0.257467D-01
     18  0.236709D-02  0.152527D-01  0.343357D-01  0.267750D-01 -0.294850D-01
     19  0.173821D+00 -0.906618D-02 -0.234518D-01  0.304373D-01 -0.343327D-02
     20 -0.314346D+00  0.164720D-01  0.162718D-01 -0.963429D-02  0.442256D-03
     21  0.157784D-01 -0.357184D-01 -0.194955D-02  0.292365D-02  0.298633D-01
     22  0.273387D-02  0.264306D-03 -0.263595D-02 -0.733318D-03  0.133335D-03
     23 -0.292031D-02  0.102622D-03  0.498615D-04  0.737955D-03  0.560829D-03
     24  0.158969D-02 -0.381745D-02  0.329711D-02 -0.136151D-02 -0.446212D-02
     25 -0.854180D-03 -0.711107D-04 -0.438532D-03  0.102344D-01  0.225170D-03
     26 -0.348958D-02 -0.466453D-03  0.236416D-01 -0.328320D-01 -0.286943D-02
     27 -0.372427D-03  0.650724D-02 -0.193403D-02 -0.596057D-03  0.122363D-01
               16            17            18            19            20 
     16  0.323545D+00
     17  0.237477D+00  0.211816D+00
     18 -0.364287D-01 -0.278391D-01  0.803767D-03
     19 -0.774891D-03 -0.156521D-03  0.854821D-04  0.137788D+00
     20  0.525515D-03  0.205192D-03 -0.645910D-04 -0.180263D+00  0.408922D+00
     21 -0.420202D-03  0.377506D-03  0.277031D-04  0.121594D-01 -0.168274D-01
     22 -0.997055D-04 -0.530030D-03  0.390086D-04  0.509946D-04  0.634579D-04
     23 -0.126811D-03 -0.271451D-03  0.213465D-04 -0.464749D-04 -0.503562D-03
     24 -0.420852D-04 -0.288851D-03 -0.229711D-02 -0.318647D-03 -0.102658D-03
     25  0.480010D-03  0.230291D-03 -0.660879D-04 -0.163504D-03  0.144048D-03
     26 -0.285047D-03 -0.443619D-03  0.240353D-05  0.514646D-03 -0.239507D-03
     27 -0.178857D-03  0.105225D-03 -0.139721D-02  0.307018D-03  0.575149D-05
               21            22            23            24            25 
     21 -0.628591D-02
     22 -0.805045D-04  0.117315D+00
     23 -0.133039D-03  0.101287D+00  0.275714D+00
     24  0.402323D-02  0.116458D-02  0.847745D-03  0.278507D-01
     25  0.123074D-03 -0.464906D-03 -0.466599D-03 -0.203540D-03  0.338104D+00
     26  0.534120D-03  0.219894D-03  0.198843D-03 -0.292121D-03 -0.199674D+00
     27 -0.223192D-02 -0.278562D-04 -0.210686D-05  0.351352D-03 -0.167345D-01
               26            27 
     26  0.163418D+00
     27  0.120642D-01  0.913662D-02
 Leave Link  716 at Thu Mar 17 12:25:39 2016, MaxMem=    33554432 cpu:         0.0
 (Enter /opt/g09/g09/l103.exe)

 GradGradGradGradGradGradGradGradGradGradGradGradGradGradGradGradGradGrad
 Berny optimization.
 Search for a local minimum.
 Step number   1 out of a maximum of    2
 All quantities printed in internal units (Hartrees-Bohrs-Radians)
 Second derivative matrix not updated -- analytic derivatives used.
 ITU=  0
     Eigenvalues ---   -0.02545  -0.00561   0.01012   0.02576   0.04283
     Eigenvalues ---    0.06240   0.06664   0.15489   0.16490   0.19331
     Eigenvalues ---    0.20177   0.33195   0.37862   0.48962   0.53592
     Eigenvalues ---    0.65422   0.91048   1.01637   1.14216   1.54139
     Eigenvalues ---    1.84426
 Eigenvalue     1 is  -2.55D-02 should be greater than     0.000000 Eigenvector:
                          Z7        Z3        Z6        Z8        Z9
   1                    0.79052  -0.42094  -0.30620   0.19516   0.17033
                          Z5        Z2        Z1        X7        Y9
   1                   -0.11406   0.10005   0.09994  -0.04981  -0.02261
 Eigenvalue     2 is  -5.61D-03 should be greater than     0.000000 Eigenvector:
                          Z6        Z8        Z9        Z3        Z1
   1                    0.59238   0.58243  -0.43967  -0.24198  -0.15257
                          Z2        Z4        Z7        X6        Y6
   1                    0.15151  -0.07306   0.05046   0.03921   0.03050
 Quadratic step=1.461D+00 exceeds max=3.000D-01 adjusted using Lamda=-1.227D-01.
 Angle between NR and scaled steps=  54.73 degrees.
 Angle between quadratic step and forces=  32.44 degrees.
 Linear search not attempted -- first point.
 TrRot= -0.012345 -0.004491 -0.004058  0.562323  0.003639 -0.560069
 Variable       Old X    -DE/DX   Delta X   Delta X   Delta X     New X
                                 (Linear)    (Quad)   (Total)
    X1        1.74963   0.10198   0.00000   0.07167   0.06250   1.81213
    Y1       -1.46044   0.13194   0.00000   0.14088   0.14062  -1.31982
    Z1        0.06746   0.00632   0.00000   0.00100  -0.00612   0.06134
    X2       -0.65156  -0.10150   0.00000  -0.03522  -0.04259  -0.69415
    Y2       -2.06406  -0.11028   0.00000  -0.08204  -0.08799  -2.15205
    Z2        0.04061  -0.00328   0.00000  -0.00184   0.00036   0.04097
    X3       -2.18702  -0.05021   0.00000  -0.07062  -0.08291  -2.26993
    Y3        0.00035   0.00539   0.00000  -0.00396  -0.01351  -0.01316
    Z3       -0.00928   0.00151   0.00000   0.01955   0.02246   0.01318
    X4       -0.60004  -0.02129   0.00000  -0.03498  -0.05180  -0.65183
    Y4        2.07940   0.02446   0.00000   0.02743   0.02168   2.10108
    Z4        0.11652   0.00066   0.00000  -0.02454  -0.03071   0.08581
    X5        1.88939  -0.01567   0.00000  -0.00864  -0.02352   1.86587
    Y5        1.37758  -0.12574   0.00000  -0.11148  -0.11153   1.26606
    Z5        0.16196  -0.00725   0.00000  -0.05109  -0.06339   0.09857
    X6        3.39654   0.05258   0.00000   0.07909   0.06094   3.45748
    Y6        2.61419   0.02879   0.00000  -0.01557  -0.01219   2.60201
    Z6       -0.03523   0.00121   0.00000   0.06390   0.04411   0.00887
    X7       -1.57892  -0.01378   0.00000   0.01715  -0.00394  -1.58286
    Y7        3.81132   0.04898   0.00000   0.12448   0.11654   3.92787
    Z7        0.01976   0.00003   0.00000   0.02465   0.01780   0.03756
    X8       -1.70694   0.01715   0.00000   0.05144   0.04817  -1.65876
    Y8       -3.98741   0.02221   0.00000   0.00340  -0.00476  -3.99217
    Z8        0.02715   0.00136   0.00000  -0.00448   0.00427   0.03142
    X9        3.43333   0.03075   0.00000   0.03965   0.03314   3.46647
    Y9       -2.55227  -0.02577   0.00000  -0.05219  -0.04886  -2.60113
    Z9       -0.02847  -0.00054   0.00000   0.02095   0.01122  -0.01725
         Item               Value     Threshold  Converged?
 Maximum Force            0.131944     0.000450     NO 
 RMS     Force            0.053962     0.000300     NO 
 Maximum Displacement     0.140625     0.001800     NO 
 RMS     Displacement     0.056972     0.001200     NO 
 Predicted change in Energy=-4.112153D-02
 GradGradGradGradGradGradGradGradGradGradGradGradGradGradGradGradGradGrad

 Leave Link  103 at Thu Mar 17 12:25:39 2016, MaxMem=    33554432 cpu:         0.0
 (Enter /opt/g09/g09/l9999.exe)
 1\1\GINC-LINUX-CBNE\Freq\RAM1-Full\STO-3G\C4H4O1\DUSTIN\17-Mar-2016\0\
 \#P AM1(Input,Print) CIS(Singlets,NStates=10) pop(full) freq\\best1\\0
 ,1\C,0.925863,-0.772834,0.035697\C,-0.34479,-1.092252,0.021488\O,-1.15
 7321,0.000187,-0.004913\C,-0.317525,1.100371,0.061662\C,0.999822,0.728
 986,0.085707\H,1.79737,1.383372,-0.018645\H,-0.835531,2.016866,0.01045
 7\H,-0.903272,-2.110048,0.014369\H,1.816842,-1.350601,-0.015067\\Versi
 on=ES64L-G09RevD.01\State=1-A\HF=0.626293\RMSD=9.798e-09\RMSF=5.396e-0
 2\ZeroPoint=0.0681152\Thermal=0.0715506\Dipole=0.4304103,-0.1221671,-0
 .0167947\DipoleDeriv=-0.3565771,0.6591934,0.0122754,0.1200221,-0.26244
 09,-0.021468,0.0247777,-0.0033894,-0.2128215,0.6112878,-0.001832,0.022
 4987,-0.448778,-0.4409781,-0.031588,0.0245597,0.0162656,0.2343334,-1.0
 849275,-0.0218369,-0.0169682,0.103857,0.6108384,0.0365705,-0.0455128,-
 0.0156644,-0.4484178,0.6196154,0.014326,-0.0023145,0.3158161,-0.340411
 4,0.0077579,0.0203076,0.0103255,0.2103716,-0.4790437,-0.6458474,-0.008
 3243,-0.1185494,-0.3673177,0.0176644,0.0014865,-0.0058534,-0.2333165,0
 .2186786,0.1067303,-0.003882,0.0855911,0.1761085,-0.0089969,-0.0110702
 ,-0.0037519,0.1254153,0.1069746,-0.1004223,0.0001429,-0.0853871,0.2174
 122,-0.005487,0.0058675,-0.0100924,0.0920231,0.1260397,0.1090783,0.002
 9949,0.0977896,0.2483139,0.0028626,-0.0024805,0.0200641,0.1043007,0.23
 79518,-0.1193931,-0.0064231,-0.0703616,0.1584757,0.0026846,-0.0179343,
 -0.0079044,0.1281118\Polar=35.2758064,3.7571805,69.4745651,0.343434,1.
 5726947,7.504736\PG=C01 [X(C4H4O1)]\NImag=3\\1.16352749,-0.10420333,0.
 55111099,-0.01052818,0.01276811,0.13692564,-0.61580086,-0.10692058,-0.
 00349138,0.87680510,-0.19302401,-0.08836911,0.00044633,0.18528413,0.64
 614418,-0.00735887,-0.00360607,-0.07415043,0.01101498,0.00313158,0.129
 74166,-0.10928161,0.05594300,-0.00121762,-0.17406800,0.18930397,-0.002
 51798,0.52813237,0.08689234,0.01895113,0.00178684,0.02469017,-0.166178
 46,0.00311834,-0.03621890,0.40465361,-0.00312838,0.00000854,0.02087522
 ,-0.00293449,0.00798796,-0.03727023,0.02144794,0.00517262,0.00326824,-
 0.08398079,0.04168924,0.00104285,0.13859067,-0.04681145,-0.00023445,-0
 .14496718,0.00316154,-0.00438659,0.72340901,0.05788663,-0.05328260,-0.
 00415228,0.03924669,-0.14091717,-0.00001927,-0.15980894,-0.13364908,-0
 .01096594,-0.25824675,0.74866683,0.00612572,0.00279600,0.03322682,-0.0
 0400166,-0.00373701,0.00104703,-0.01121292,-0.00928029,-0.04233716,0.0
 2165038,-0.00764244,0.12574432,-0.03754801,-0.02315063,-0.00168626,-0.
 08555245,-0.05966605,-0.00235040,-0.10737092,-0.07187522,-0.00966404,-
 0.47081357,0.16024699,-0.00623742,1.00452017,0.01591714,-0.25217316,-0
 .00340808,-0.05698445,-0.05427969,-0.00133500,-0.04411164,0.01752357,-
 0.00304598,0.09321692,-0.10801833,0.00226495,0.16645631,0.62797053,0.0
 0771200,-0.00054641,-0.10763108,-0.00639852,-0.00348935,0.03048396,-0.
 00779768,-0.00104460,0.01519946,-0.01065843,0.00341704,-0.09990488,-0.
 01381104,-0.02221706,0.15369999,0.00075580,-0.00730605,0.00036509,-0.0
 0025633,0.00118947,0.00033612,-0.00398253,-0.00201675,-0.00020863,-0.0
 4295810,-0.01502502,0.00254889,-0.27670901,-0.21443257,0.03402843,0.32
 354471,-0.02384184,-0.02810592,0.00153810,0.00001685,-0.00365755,-0.00
 012135,0.00215684,0.00179579,0.00099113,-0.00337813,0.00795654,-0.0005
 0934,-0.21197461,-0.18929453,0.02574669,0.23747720,0.21181550,-0.00415
 327,-0.00258355,0.01145515,0.00537585,-0.00076417,0.00616652,0.0014255
 7,0.00208555,-0.00052659,-0.00061348,0.00236709,0.01525270,0.03433567,
 0.02677501,-0.02948497,-0.03642875,-0.02783910,0.00080377,-0.00289915,
 0.00111421,0.00087468,0.00133845,-0.00282259,0.00019982,0.00792494,-0.
 02259767,-0.00080831,-0.11981360,0.17382051,-0.00906618,-0.02345177,0.
 03043728,-0.00343327,-0.00077489,-0.00015652,0.00008548,0.13778849,-0.
 00015683,0.00005101,0.00038799,-0.00114787,-0.00370964,-0.00005959,-0.
 00475717,-0.08074475,-0.00025381,0.16932042,-0.31434607,0.01647200,0.0
 1627178,-0.00963429,0.00044226,0.00052552,0.00020519,-0.00006459,-0.18
 026341,0.40892167,-0.00409106,-0.00162870,-0.00817266,0.00227881,-0.00
 040959,-0.00400357,0.00116877,-0.00061500,0.02249825,-0.00918871,0.015
 77841,-0.03571844,-0.00194955,0.00292365,0.02986330,-0.00042020,0.0003
 7751,0.00002770,0.01215941,-0.01682736,-0.00628591,-0.02324217,-0.0298
 1620,-0.00071636,-0.09960809,-0.08929073,-0.00008510,0.00755323,0.0160
 6610,-0.00069141,0.00113125,0.00273387,0.00026431,-0.00263595,-0.00073
 332,0.00013334,-0.00009971,-0.00053003,0.00003901,0.00005099,0.0000634
 6,-0.00008050,0.11731529,-0.01669589,-0.01118844,-0.00072597,-0.085039
 57,-0.19750440,-0.00107542,-0.00044938,-0.06426221,0.00040399,0.001487
 90,-0.00292031,0.00010262,0.00004986,0.00073796,0.00056083,-0.00012681
 ,-0.00027145,0.00002135,-0.00004647,-0.00050356,-0.00013304,0.10128697
 ,0.27571355,-0.00060794,0.00140807,0.02551511,-0.00027732,-0.00205265,
 -0.06383742,-0.00104079,0.00025227,0.01667376,-0.00197137,0.00158969,-
 0.00381745,0.00329711,-0.00136151,-0.00446212,-0.00004209,-0.00028885,
 -0.00229711,-0.00031865,-0.00010266,0.00402323,0.00116458,0.00084774,0
 .02785070,-0.29153055,0.17265022,0.01535717,-0.04144840,0.01583730,0.0
 0099588,-0.00394040,0.00189865,0.00037391,-0.00059759,-0.00085418,-0.0
 0007111,-0.00043853,0.01023442,0.00022517,0.00048001,0.00023029,-0.000
 06609,-0.00016350,0.00014405,0.00012307,-0.00046491,-0.00046660,-0.000
 20354,0.33810381,0.17722584,-0.13699388,-0.00864101,0.00085437,0.00847
 188,-0.00003322,-0.00205777,0.00191015,-0.00029854,-0.00043940,-0.0034
 8958,-0.00046645,0.02364161,-0.03283204,-0.00286943,-0.00028505,-0.000
 44362,0.00000240,0.00051465,-0.00023951,0.00053412,0.00021989,0.000198
 84,-0.00029212,-0.19967418,0.16341776,0.01603002,-0.00861593,-0.038043
 75,-0.00156630,-0.00111309,0.01182243,-0.00025516,-0.00147558,0.001618
 97,0.00435961,-0.00037243,0.00650724,-0.00193403,-0.00059606,0.0122362
 6,-0.00017886,0.00010523,-0.00139721,0.00030702,0.00000575,-0.00223192
 ,-0.00002786,-0.00000211,0.00035135,-0.01673446,0.01206424,0.00913662\
 \-0.10198040,-0.13194401,-0.00632256,0.10150394,0.11027968,0.00328272,
 0.05021199,-0.00538649,-0.00150721,0.02128753,-0.02446424,-0.00065699,
 0.01567147,0.12573884,0.00725330,-0.05257721,-0.02879474,-0.00120518,0
 .01378174,-0.04898404,-0.00002903,-0.01715202,-0.02221225,-0.00135820,
 -0.03074704,0.02576724,0.00054316\\\@


 THE MOST BEAUTIFUL EXPERIENCE WE CAN HAVE IS THE MYSTERIOUS.
 IT IS THE FUNDAMENTAL EMOTION WHICH STANDS AT AT THE CRADLE 
 OF TRUE ART AND TRUE SCIENCE.

                                    -- ALBERT EINSTEIN
 Job cpu time:       0 days  0 hours  0 minutes  0.4 seconds.
 File lengths (MBytes):  RWF=      6 Int=      0 D2E=      0 Chk=      2 Scr=      1
 Normal termination of Gaussian 09 at Thu Mar 17 12:25:39 2016.
