 Entering Gaussian System, Link 0=g09
 Input=best.com
 Output=best.log
 Initial command:
 /opt/g09/g09/l1.exe "/opt/g09/scratch/Gau-13223.inp" -scrdir="/opt/g09/scratch/"
 Entering Link 1 = /opt/g09/g09/l1.exe PID=     13224.
  
 Copyright (c) 1988,1990,1992,1993,1995,1998,2003,2009,2013,
            Gaussian, Inc.  All Rights Reserved.
  
 This is part of the Gaussian(R) 09 program.  It is based on
 the Gaussian(R) 03 system (copyright 2003, Gaussian, Inc.),
 the Gaussian(R) 98 system (copyright 1998, Gaussian, Inc.),
 the Gaussian(R) 94 system (copyright 1995, Gaussian, Inc.),
 the Gaussian 92(TM) system (copyright 1992, Gaussian, Inc.),
 the Gaussian 90(TM) system (copyright 1990, Gaussian, Inc.),
 the Gaussian 88(TM) system (copyright 1988, Gaussian, Inc.),
 the Gaussian 86(TM) system (copyright 1986, Carnegie Mellon
 University), and the Gaussian 82(TM) system (copyright 1983,
 Carnegie Mellon University). Gaussian is a federally registered
 trademark of Gaussian, Inc.
  
 This software contains proprietary and confidential information,
 including trade secrets, belonging to Gaussian, Inc.
  
 This software is provided under written license and may be
 used, copied, transmitted, or stored only in accord with that
 written license.
  
 The following legend is applicable only to US Government
 contracts under FAR:
  
                    RESTRICTED RIGHTS LEGEND
  
 Use, reproduction and disclosure by the US Government is
 subject to restrictions as set forth in subparagraphs (a)
 and (c) of the Commercial Computer Software - Restricted
 Rights clause in FAR 52.227-19.
  
 Gaussian, Inc.
 340 Quinnipiac St., Bldg. 40, Wallingford CT 06492
  
  
 ---------------------------------------------------------------
 Warning -- This program may not be used in any manner that
 competes with the business of Gaussian, Inc. or will provide
 assistance to any competitor of Gaussian, Inc.  The licensee
 of this program is prohibited from giving any competitor of
 Gaussian, Inc. access to this program.  By using this program,
 the user acknowledges that Gaussian, Inc. is engaged in the
 business of creating and licensing software in the field of
 computational chemistry and represents and warrants to the
 licensee that it is not a competitor of Gaussian, Inc. and that
 it will not use this program in any manner prohibited above.
 ---------------------------------------------------------------
  

 Cite this work as:
 Gaussian 09, Revision D.01,
 M. J. Frisch, G. W. Trucks, H. B. Schlegel, G. E. Scuseria, 
 M. A. Robb, J. R. Cheeseman, G. Scalmani, V. Barone, B. Mennucci, 
 G. A. Petersson, H. Nakatsuji, M. Caricato, X. Li, H. P. Hratchian, 
 A. F. Izmaylov, J. Bloino, G. Zheng, J. L. Sonnenberg, M. Hada, 
 M. Ehara, K. Toyota, R. Fukuda, J. Hasegawa, M. Ishida, T. Nakajima, 
 Y. Honda, O. Kitao, H. Nakai, T. Vreven, J. A. Montgomery, Jr., 
 J. E. Peralta, F. Ogliaro, M. Bearpark, J. J. Heyd, E. Brothers, 
 K. N. Kudin, V. N. Staroverov, T. Keith, R. Kobayashi, J. Normand, 
 K. Raghavachari, A. Rendell, J. C. Burant, S. S. Iyengar, J. Tomasi, 
 M. Cossi, N. Rega, J. M. Millam, M. Klene, J. E. Knox, J. B. Cross, 
 V. Bakken, C. Adamo, J. Jaramillo, R. Gomperts, R. E. Stratmann, 
 O. Yazyev, A. J. Austin, R. Cammi, C. Pomelli, J. W. Ochterski, 
 R. L. Martin, K. Morokuma, V. G. Zakrzewski, G. A. Voth, 
 P. Salvador, J. J. Dannenberg, S. Dapprich, A. D. Daniels, 
 O. Farkas, J. B. Foresman, J. V. Ortiz, J. Cioslowski, 
 and D. J. Fox, Gaussian, Inc., Wallingford CT, 2013.
 
 ******************************************
 Gaussian 09:  ES64L-G09RevD.01 24-Apr-2013
                14-Mar-2016 
 ******************************************
 -----------------------
 #P AM1(Input,Print) opt
 -----------------------
 1/14=-1,18=20,19=15,26=1,38=1/1,3;
 2/9=110,12=2,17=6,18=5,40=1/2;
 3/5=2,16=1,25=1,41=700000,71=1,135=100,136=1/1,2,3;
 4/35=1/1;
 5/5=2,35=1,38=5/2;
 6/7=2,8=2,9=2,10=2,28=1/1;
 7//1,2,3,16;
 1/14=-1,18=20,19=15,26=1/3(2);
 2/9=110/2;
 99//99;
 2/9=110/2;
 3/5=2,16=1,25=1,41=700000,71=1,135=20,136=1/1,2,3;
 4/5=5,16=3,35=1/1;
 5/5=2,35=1,38=5/2;
 7//1,2,3,16;
 1/14=-1,18=20,19=15,26=1/3(-5);
 2/9=110/2;
 6/7=2,8=2,9=2,10=2,19=2,28=1/1;
 99/9=1/99;
 Leave Link    1 at Mon Mar 14 17:12:45 2016, MaxMem=           0 cpu:         0.0
 (Enter /opt/g09/g09/l101.exe)
 ----
 best
 ----
 Symbolic Z-matrix:
 Charge =  0 Multiplicity = 1
 6                     0.90212  -0.71613  -0.05401 
 6                    -0.40667  -1.06605   0.06731 
 8                    -1.15437   0.00005   0.05221 
 6                    -0.32366   1.00078   0.0019 
 6                     0.97709   0.71331  -0.08969 
 1                     1.79888   1.32813   0.088 
 1                    -0.83529   2.01602  -0.02939 
 1                    -0.84703  -2.03979  -0.01366 
 1                     1.81043  -1.36495  -0.09327 
 
 NAtoms=      9 NQM=        9 NQMF=       0 NMMI=      0 NMMIF=      0
                NMic=       0 NMicF=      0.
                    Isotopes and Nuclear Properties:
 (Nuclear quadrupole moments (NQMom) in fm**2, nuclear magnetic moments (NMagM)
  in nuclear magnetons)

  Atom         1           2           3           4           5           6           7           8           9
 IAtWgt=          12          12          16          12          12           1           1           1           1
 AtmWgt=  12.0000000  12.0000000  15.9949146  12.0000000  12.0000000   1.0078250   1.0078250   1.0078250   1.0078250
 NucSpn=           0           0           0           0           0           1           1           1           1
 AtZEff=   0.0000000   0.0000000   0.0000000   0.0000000   0.0000000   0.0000000   0.0000000   0.0000000   0.0000000
 NQMom=    0.0000000   0.0000000   0.0000000   0.0000000   0.0000000   0.0000000   0.0000000   0.0000000   0.0000000
 NMagM=    0.0000000   0.0000000   0.0000000   0.0000000   0.0000000   2.7928460   2.7928460   2.7928460   2.7928460
 AtZNuc=   6.0000000   6.0000000   8.0000000   6.0000000   6.0000000   1.0000000   1.0000000   1.0000000   1.0000000
 Leave Link  101 at Mon Mar 14 17:12:45 2016, MaxMem=    33554432 cpu:         0.1
 (Enter /opt/g09/g09/l103.exe)

 GradGradGradGradGradGradGradGradGradGradGradGradGradGradGradGradGradGrad
 Berny optimization.
 Initialization pass.
                           ----------------------------
                           !    Initial Parameters    !
                           ! (Angstroms and Degrees)  !
 --------------------------                            --------------------------
 ! Name  Definition              Value          Derivative Info.                !
 --------------------------------------------------------------------------------
 ! R1    R(1,2)                  1.3602         estimate D2E/DX2                !
 ! R2    R(1,5)                  1.4319         estimate D2E/DX2                !
 ! R3    R(1,9)                  1.1169         estimate D2E/DX2                !
 ! R4    R(2,3)                  1.3022         estimate D2E/DX2                !
 ! R5    R(2,8)                  1.0717         estimate D2E/DX2                !
 ! R6    R(3,4)                  1.3016         estimate D2E/DX2                !
 ! R7    R(4,5)                  1.3353         estimate D2E/DX2                !
 ! R8    R(4,7)                  1.1373         estimate D2E/DX2                !
 ! R9    R(5,6)                  1.0416         estimate D2E/DX2                !
 ! A1    A(2,1,5)              108.0248         estimate D2E/DX2                !
 ! A2    A(2,1,9)              129.5083         estimate D2E/DX2                !
 ! A3    A(5,1,9)              122.4431         estimate D2E/DX2                !
 ! A4    A(1,2,3)              109.927          estimate D2E/DX2                !
 ! A5    A(1,2,8)              128.4877         estimate D2E/DX2                !
 ! A6    A(3,2,8)              120.4653         estimate D2E/DX2                !
 ! A7    A(2,3,4)              105.2743         estimate D2E/DX2                !
 ! A8    A(3,4,5)              117.3133         estimate D2E/DX2                !
 ! A9    A(3,4,7)              113.5962         estimate D2E/DX2                !
 ! A10   A(5,4,7)              128.9416         estimate D2E/DX2                !
 ! A11   A(1,5,4)               99.3355         estimate D2E/DX2                !
 ! A12   A(1,5,6)              128.7798         estimate D2E/DX2                !
 ! A13   A(4,5,6)              129.0349         estimate D2E/DX2                !
 ! D1    D(5,1,2,3)              2.7321         estimate D2E/DX2                !
 ! D2    D(5,1,2,8)            170.484          estimate D2E/DX2                !
 ! D3    D(9,1,2,3)           -179.0398         estimate D2E/DX2                !
 ! D4    D(9,1,2,8)            -11.2879         estimate D2E/DX2                !
 ! D5    D(2,1,5,4)             -0.6942         estimate D2E/DX2                !
 ! D6    D(2,1,5,6)            161.2596         estimate D2E/DX2                !
 ! D7    D(9,1,5,4)           -179.0744         estimate D2E/DX2                !
 ! D8    D(9,1,5,6)            -17.1206         estimate D2E/DX2                !
 ! D9    D(1,2,3,4)             -3.571          estimate D2E/DX2                !
 ! D10   D(8,2,3,4)           -172.4633         estimate D2E/DX2                !
 ! D11   D(2,3,4,5)              3.3673         estimate D2E/DX2                !
 ! D12   D(2,3,4,7)            179.3304         estimate D2E/DX2                !
 ! D13   D(3,4,5,1)             -1.6342         estimate D2E/DX2                !
 ! D14   D(3,4,5,6)           -163.5209         estimate D2E/DX2                !
 ! D15   D(7,4,5,1)           -176.8764         estimate D2E/DX2                !
 ! D16   D(7,4,5,6)             21.237          estimate D2E/DX2                !
 --------------------------------------------------------------------------------
 Trust Radius=3.00D-01 FncErr=1.00D-07 GrdErr=1.00D-07
 Number of steps in this run=     48 maximum allowed number of steps=    100.
 GradGradGradGradGradGradGradGradGradGradGradGradGradGradGradGradGradGrad

 Leave Link  103 at Mon Mar 14 17:12:45 2016, MaxMem=    33554432 cpu:         0.0
 (Enter /opt/g09/g09/l202.exe)
                          Input orientation:                          
 ---------------------------------------------------------------------
 Center     Atomic      Atomic             Coordinates (Angstroms)
 Number     Number       Type             X           Y           Z
 ---------------------------------------------------------------------
      1          6           0        0.902119   -0.716134   -0.054005
      2          6           0       -0.406673   -1.066053    0.067311
      3          8           0       -1.154368    0.000048    0.052214
      4          6           0       -0.323656    1.000781    0.001898
      5          6           0        0.977087    0.713310   -0.089691
      6          1           0        1.798884    1.328128    0.087999
      7          1           0       -0.835292    2.016024   -0.029394
      8          1           0       -0.847028   -2.039795   -0.013663
      9          1           0        1.810431   -1.364952   -0.093267
 ---------------------------------------------------------------------
                    Distance matrix (angstroms):
                    1          2          3          4          5
     1  C    0.000000
     2  C    1.360183   0.000000
     3  O    2.180215   1.302247   0.000000
     4  C    2.110319   2.069535   1.301569   0.000000
     5  C    1.431853   2.259552   2.252106   1.335275   0.000000
     6  H    2.236819   3.255305   3.238329   2.149359   1.041597
     7  H    3.237884   3.113240   2.042701   1.137308   2.232805
     8  H    2.193905   1.071748   2.063918   3.085330   3.303447
     9  H    1.116932   2.242917   3.267174   3.187487   2.239118
                    6          7          8          9
     6  H    0.000000
     7  H    2.725044   0.000000
     8  H    4.284167   4.055866   0.000000
     9  H    2.699198   4.293592   2.742962   0.000000
 Stoichiometry    C4H4O
 Framework group  C1[X(C4H4O)]
 Deg. of freedom    21
 Full point group                 C1      NOp   1
 Largest Abelian subgroup         C1      NOp   1
 Largest concise Abelian subgroup C1      NOp   1
                         Standard orientation:                         
 ---------------------------------------------------------------------
 Center     Atomic      Atomic             Coordinates (Angstroms)
 Number     Number       Type             X           Y           Z
 ---------------------------------------------------------------------
      1          6           0       -0.173418    1.140809   -0.016464
      2          6           0        1.016606    0.484506    0.040159
      3          8           0        0.816424   -0.801674    0.001210
      4          6           0       -0.476948   -0.947503   -0.000073
      5          6           0       -1.218631    0.162326   -0.033927
      6          1           0       -2.229089    0.283074    0.188155
      7          1           0       -0.812622   -2.033228   -0.044726
      8          1           0        2.004748    0.884267   -0.071240
      9          1           0       -0.380081    2.238449   -0.020043
 ---------------------------------------------------------------------
 Rotational constants (GHZ):     10.2774351      9.2463969      4.8743567
 Leave Link  202 at Mon Mar 14 17:12:45 2016, MaxMem=    33554432 cpu:         0.0
 (Enter /opt/g09/g09/l301.exe)

 Semi-emprical parameters in input format:
 Method=8 CoreType=1 PeptideFC=0.0114505045 RIJScale=0.5291772086
 ****
 H       
 PQN=1 NValence=1 F0ss=0.4575101502 ZetaOverlap=1.1880780000 U=-0.4188110042
 Beta=-0.2268825074 CoreKO=1.0589197790 KON=0,0,0,0.9729128786 KON=1,0,1,1.0589197790
 KON=0,1,1,1.0589197790 KON=2,1,1,1.0589197790 EISol=-0.4188110042 EHeat=0.0830298228
 Alpha=1.5252601686
 GCore=0.0085277107,1.4001425905,2.2676713595
 GCore=0.0003534810,1.4001425905,3.4015070392
 GCore=-0.0012733648,0.5600570362,3.9684248791
 ****
 C       
 PQN=2,2 NValence=4 F0ss=0.4494442496 F0sp=0.4215147623 F0pp=0.3768030831 F2pp=0.1898715146
 G1sp=0.2679025821
 ZetaOverlap=1.8086650000,1.6851160000
 U=-1.9120180828,-1.4557965594
 Beta=-0.5775444233,-0.2836784428 DDN=0,1,0.8236736000 DDN=1,1,0.7848722650
 CoreKO=1.1124284736 KON=0,0,0,1.0130417543 KON=1,0,1,0.8016545580 KON=0,1,1,1.1124284736
 KON=2,1,1,0.7783928119 EISol=-4.4398989268 EHeat=0.2723305520 Alpha=1.4014062429
 DipHyp=1.6472524267
 GCore=0.0007885612,1.4001425905,3.1470066108
 GCore=0.0030846292,1.4001425905,3.2670454744
 GCore=-0.0013931594,1.3423965362,3.8739385724
 GCore=-0.0000875022,1.4001425905,5.0077742521
 ****
 O       
 PQN=2,2 NValence=6 F0ss=0.5666745976 F0sp=0.5321302318 F0pp=0.5052463918 F2pp=0.2358081713
 G1sp=0.4343770262
 ZetaOverlap=3.1080320000,2.7008530850
 U=-3.5951865036,-2.8760896690
 Beta=-1.0757546603,-1.0387102641 DDN=0,1,0.5174116255 DDN=1,1,0.4852322000
 CoreKO=0.8822957477 KON=0,0,0,0.8822957477 KON=1,0,1,0.5019543089 KON=0,1,1,0.8822957477
 KON=2,1,1,0.5515584117 EISol=-11.6164441184 EHeat=0.0949133088 Alpha=2.3576807890
 DipHyp=1.0347637167
 GCore=0.0195117322,1.4001425905,1.6023328031
 GCore=0.0056550009,1.9601996266,2.9938713957
 ****
 
 Standard basis: VSTO-6G (5D, 7F)
 Ernie: Thresh=  0.10000D-02 Tol=  0.10000D-05 Strict=F.
  NNHCO=     0 NNPyr=     0 NCTC=     0               EPep=         0.000000000
    EC=        69.619305106  ECS=         1.932858137   EG=         0.371077481
   EHC=         0.000000000  EAt=       -31.051283842  AtH=         1.516354808
 EPDDG=         0.000000000  ECC=        71.923240723 EAtT=        32.567638650
 There are    24 symmetry adapted cartesian basis functions of A   symmetry.
 There are    24 symmetry adapted basis functions of A   symmetry.
    24 basis functions,   144 primitive gaussians,    24 cartesian basis functions
    13 alpha electrons       13 beta electrons
       nuclear repulsion energy       104.4908793736 Hartrees.
 IExCor=    0 DFT=F Ex=HF Corr=None ExCW=0 ScaHFX=  1.000000
 ScaDFX=  1.000000  1.000000  1.000000  1.000000 ScalE2=  1.000000  1.000000
 IRadAn=      0 IRanWt=     -1 IRanGd=            0 ICorTp=0 IEmpDi=  4
 Integral buffers will be    131072 words long.
 Regular integral format.
 Two-electron integral symmetry is turned off.
 Leave Link  301 at Mon Mar 14 17:12:45 2016, MaxMem=    33554432 cpu:         0.0
 (Enter /opt/g09/g09/l302.exe)
 Do NDO integrals.
 NPDir=0 NMtPBC=     1 NCelOv=     1 NCel=       1 NClECP=     1 NCelD=      1
         NCelK=      1 NCelE2=     1 NClLst=     1 CellRange=     0.0.
 One-electron integrals computed using PRISM.
 NBasis=    24 RedAO= F EigKep=  0.00D+00  NBF=    24
 NBsUse=    24 1.00D-04 EigRej=  0.00D+00 NBFU=    24
 Leave Link  302 at Mon Mar 14 17:12:45 2016, MaxMem=    33554432 cpu:         0.0
 (Enter /opt/g09/g09/l303.exe)
 DipDrv:  MaxL=1.
 Leave Link  303 at Mon Mar 14 17:12:45 2016, MaxMem=    33554432 cpu:         0.0
 (Enter /opt/g09/g09/l401.exe)
 Simple Huckel Guess.
 JPrj=0 DoOrth=F DoCkMO=F.
 Leave Link  401 at Mon Mar 14 17:12:45 2016, MaxMem=    33554432 cpu:         0.0
 (Enter /opt/g09/g09/l502.exe)
 Closed shell SCF:
 Using DIIS extrapolation, IDIIS=  1040.
 Overlap will be assumed to be unity.
 Two-electron integral symmetry not used.
 Keep J ints in memory in canonical form, NReq=888082.
 IVT=       79475 IEndB=       79475 NGot=    33554432 MDV=    33473473
 LenX=    33473473 LenY=    33472456
 Requested convergence on RMS density matrix=1.00D-08 within 128 cycles.
 Requested convergence on MAX density matrix=1.00D-06.
 Requested convergence on             energy=1.00D-06.
 No special actions if energy rises.
 FoFCou: FMM=F IPFlag=           0 FMFlag=           0 FMFlg1=           0
         NFxFlg=           0 DoJE=F BraDBF=F KetDBF=F FulRan=T
         wScrn=  0.000000 ICntrl=     600 IOpCl=  2 I1Cent=           0 NGrid=           0
         NMat0=    1 NMatS0=     54 NMatT0=    0 NMatD0=    1 NMtDS0=    0 NMtDT0=    0
 Symmetry not used in FoFCou.

 Cycle   1  Pass 1  IDiag  1:
 E= 0.443532730168329    
 DIIS: error= 6.96D-02 at cycle   1 NSaved=   1.
 NSaved= 1 IEnMin= 1 EnMin= 0.443532730168329     IErMin= 1 ErrMin= 6.96D-02
 ErrMax= 6.96D-02  0.00D+00 EMaxC= 1.00D-01 BMatC= 1.10D-01 BMatP= 1.10D-01
 IDIUse=3 WtCom= 3.04D-01 WtEn= 6.96D-01
 Coeff-Com:  0.100D+01
 Coeff-En:   0.100D+01
 Coeff:      0.100D+01
 GapD=    2.000 DampG=2.000 DampE=0.500 DampFc=1.0000 IDamp=-1.
 RMSDP=1.95D-02 MaxDP=1.65D-01              OVMax= 0.00D+00

 Cycle   2  Pass 1  IDiag  1:
 E= 0.166924103326778     Delta-E=       -0.276608626842 Rises=F Damp=F
 DIIS: error= 1.56D-02 at cycle   2 NSaved=   2.
 NSaved= 2 IEnMin= 2 EnMin= 0.166924103326778     IErMin= 2 ErrMin= 1.56D-02
 ErrMax= 1.56D-02  0.00D+00 EMaxC= 1.00D-01 BMatC= 9.98D-03 BMatP= 1.10D-01
 IDIUse=3 WtCom= 8.44D-01 WtEn= 1.56D-01
 Coeff-Com: -0.356D+00 0.136D+01
 Coeff-En:   0.000D+00 0.100D+01
 Coeff:     -0.301D+00 0.130D+01
 RMSDP=8.64D-03 MaxDP=5.95D-02 DE=-2.77D-01 OVMax= 0.00D+00

 Cycle   3  Pass 1  IDiag  3:
 E= 0.133337679935991     Delta-E=       -0.033586423391 Rises=F Damp=F
 DIIS: error= 3.93D-03 at cycle   3 NSaved=   3.
 NSaved= 3 IEnMin= 3 EnMin= 0.133337679935991     IErMin= 3 ErrMin= 3.93D-03
 ErrMax= 3.93D-03  0.00D+00 EMaxC= 1.00D-01 BMatC= 5.03D-04 BMatP= 9.98D-03
 IDIUse=3 WtCom= 9.61D-01 WtEn= 3.93D-02
 Coeff-Com:  0.130D+00-0.584D+00 0.145D+01
 Coeff-En:   0.000D+00 0.000D+00 0.100D+01
 Coeff:      0.125D+00-0.561D+00 0.144D+01
 Gap=     0.380 Goal=   None    Shift=    0.000
 RMSDP=2.98D-03 MaxDP=1.93D-02 DE=-3.36D-02 OVMax= 3.50D-02

 Cycle   4  Pass 1  IDiag  3:
 E= 0.130499220640445     Delta-E=       -0.002838459296 Rises=F Damp=F
 DIIS: error= 1.33D-03 at cycle   4 NSaved=   4.
 NSaved= 4 IEnMin= 4 EnMin= 0.130499220640445     IErMin= 4 ErrMin= 1.33D-03
 ErrMax= 1.33D-03  0.00D+00 EMaxC= 1.00D-01 BMatC= 4.47D-05 BMatP= 5.03D-04
 IDIUse=3 WtCom= 9.87D-01 WtEn= 1.33D-02
 Coeff-Com:  0.188D-01-0.616D-01-0.232D+00 0.127D+01
 Coeff-En:   0.000D+00 0.000D+00 0.000D+00 0.100D+01
 Coeff:      0.186D-01-0.608D-01-0.229D+00 0.127D+01
 Gap=     0.381 Goal=   None    Shift=    0.000
 RMSDP=1.10D-03 MaxDP=7.85D-03 DE=-2.84D-03 OVMax= 1.33D-02

 Cycle   5  Pass 1  IDiag  3:
 E= 0.130212786976216     Delta-E=       -0.000286433664 Rises=F Damp=F
 DIIS: error= 2.33D-04 at cycle   5 NSaved=   5.
 NSaved= 5 IEnMin= 5 EnMin= 0.130212786976216     IErMin= 5 ErrMin= 2.33D-04
 ErrMax= 2.33D-04  0.00D+00 EMaxC= 1.00D-01 BMatC= 2.70D-06 BMatP= 4.47D-05
 IDIUse=3 WtCom= 9.98D-01 WtEn= 2.33D-03
 Coeff-Com: -0.998D-02 0.384D-01 0.538D-01-0.578D+00 0.150D+01
 Coeff-En:   0.000D+00 0.000D+00 0.000D+00 0.000D+00 0.100D+01
 Coeff:     -0.996D-02 0.383D-01 0.537D-01-0.576D+00 0.149D+01
 Gap=     0.381 Goal=   None    Shift=    0.000
 RMSDP=3.08D-04 MaxDP=2.23D-03 DE=-2.86D-04 OVMax= 3.38D-03

 Cycle   6  Pass 1  IDiag  3:
 E= 0.130192642575125     Delta-E=       -0.000020144401 Rises=F Damp=F
 DIIS: error= 1.15D-04 at cycle   6 NSaved=   6.
 NSaved= 6 IEnMin= 6 EnMin= 0.130192642575125     IErMin= 6 ErrMin= 1.15D-04
 ErrMax= 1.15D-04  0.00D+00 EMaxC= 1.00D-01 BMatC= 2.40D-07 BMatP= 2.70D-06
 IDIUse=3 WtCom= 9.99D-01 WtEn= 1.15D-03
 Coeff-Com:  0.415D-02-0.161D-01-0.490D-02 0.178D+00-0.683D+00 0.152D+01
 Coeff-En:   0.000D+00 0.000D+00 0.000D+00 0.000D+00 0.000D+00 0.100D+01
 Coeff:      0.414D-02-0.160D-01-0.490D-02 0.178D+00-0.683D+00 0.152D+01
 Gap=     0.381 Goal=   None    Shift=    0.000
 RMSDP=1.07D-04 MaxDP=9.16D-04 DE=-2.01D-05 OVMax= 1.38D-03

 Cycle   7  Pass 1  IDiag  3:
 E= 0.130190472929016     Delta-E=       -0.000002169646 Rises=F Damp=F
 DIIS: error= 4.22D-05 at cycle   7 NSaved=   7.
 NSaved= 7 IEnMin= 7 EnMin= 0.130190472929016     IErMin= 7 ErrMin= 4.22D-05
 ErrMax= 4.22D-05  0.00D+00 EMaxC= 1.00D-01 BMatC= 2.24D-08 BMatP= 2.40D-07
 IDIUse=1 WtCom= 1.00D+00 WtEn= 0.00D+00
 Coeff-Com: -0.460D-03 0.122D-02-0.578D-04-0.158D-01 0.108D+00-0.584D+00
 Coeff-Com:  0.149D+01
 Coeff:     -0.460D-03 0.122D-02-0.578D-04-0.158D-01 0.108D+00-0.584D+00
 Coeff:      0.149D+01
 Gap=     0.381 Goal=   None    Shift=    0.000
 RMSDP=3.99D-05 MaxDP=3.74D-04 DE=-2.17D-06 OVMax= 4.92D-04

 Cycle   8  Pass 1  IDiag  3:
 E= 0.130190251666036     Delta-E=       -0.000000221263 Rises=F Damp=F
 DIIS: error= 8.79D-06 at cycle   8 NSaved=   8.
 NSaved= 8 IEnMin= 8 EnMin= 0.130190251666036     IErMin= 8 ErrMin= 8.79D-06
 ErrMax= 8.79D-06  0.00D+00 EMaxC= 1.00D-01 BMatC= 1.01D-09 BMatP= 2.24D-08
 IDIUse=1 WtCom= 1.00D+00 WtEn= 0.00D+00
 Coeff-Com:  0.542D-04 0.127D-03-0.416D-03 0.306D-02-0.298D-01 0.222D+00
 Coeff-Com: -0.737D+00 0.154D+01
 Coeff:      0.542D-04 0.127D-03-0.416D-03 0.306D-02-0.298D-01 0.222D+00
 Coeff:     -0.737D+00 0.154D+01
 Gap=     0.381 Goal=   None    Shift=    0.000
 RMSDP=7.76D-06 MaxDP=7.57D-05 DE=-2.21D-07 OVMax= 9.63D-05

 Cycle   9  Pass 1  IDiag  3:
 E= 0.130190243059687     Delta-E=       -0.000000008606 Rises=F Damp=F
 DIIS: error= 1.30D-06 at cycle   9 NSaved=   9.
 NSaved= 9 IEnMin= 9 EnMin= 0.130190243059687     IErMin= 9 ErrMin= 1.30D-06
 ErrMax= 1.30D-06  0.00D+00 EMaxC= 1.00D-01 BMatC= 4.81D-11 BMatP= 1.01D-09
 IDIUse=1 WtCom= 1.00D+00 WtEn= 0.00D+00
 Coeff-Com:  0.305D-04-0.271D-03 0.163D-03 0.613D-03 0.498D-02-0.729D-01
 Coeff-Com:  0.283D+00-0.745D+00 0.153D+01
 Coeff:      0.305D-04-0.271D-03 0.163D-03 0.613D-03 0.498D-02-0.729D-01
 Coeff:      0.283D+00-0.745D+00 0.153D+01
 Gap=     0.381 Goal=   None    Shift=    0.000
 RMSDP=1.32D-06 MaxDP=1.08D-05 DE=-8.61D-09 OVMax= 1.69D-05

 Cycle  10  Pass 1  IDiag  3:
 E= 0.130190242749606     Delta-E=       -0.000000000310 Rises=F Damp=F
 DIIS: error= 1.47D-07 at cycle  10 NSaved=  10.
 NSaved=10 IEnMin=10 EnMin= 0.130190242749606     IErMin=10 ErrMin= 1.47D-07
 ErrMax= 1.47D-07  0.00D+00 EMaxC= 1.00D-01 BMatC= 2.04D-12 BMatP= 4.81D-11
 IDIUse=1 WtCom= 1.00D+00 WtEn= 0.00D+00
 Coeff-Com: -0.159D-04 0.126D-03-0.111D-03-0.174D-03-0.156D-02 0.262D-01
 Coeff-Com: -0.105D+00 0.283D+00-0.680D+00 0.148D+01
 Coeff:     -0.159D-04 0.126D-03-0.111D-03-0.174D-03-0.156D-02 0.262D-01
 Coeff:     -0.105D+00 0.283D+00-0.680D+00 0.148D+01
 Gap=     0.381 Goal=   None    Shift=    0.000
 RMSDP=2.45D-07 MaxDP=1.28D-06 DE=-3.10D-10 OVMax= 2.23D-06

 Cycle  11  Pass 1  IDiag  3:
 E= 0.130190242737143     Delta-E=       -0.000000000012 Rises=F Damp=F
 DIIS: error= 4.13D-08 at cycle  11 NSaved=  11.
 NSaved=11 IEnMin=11 EnMin= 0.130190242737143     IErMin=11 ErrMin= 4.13D-08
 ErrMax= 4.13D-08  0.00D+00 EMaxC= 1.00D-01 BMatC= 1.29D-13 BMatP= 2.04D-12
 IDIUse=1 WtCom= 1.00D+00 WtEn= 0.00D+00
 Coeff-Com:  0.466D-05-0.362D-04 0.422D-04 0.767D-05 0.328D-03-0.619D-02
 Coeff-Com:  0.254D-01-0.686D-01 0.172D+00-0.532D+00 0.141D+01
 Coeff:      0.466D-05-0.362D-04 0.422D-04 0.767D-05 0.328D-03-0.619D-02
 Coeff:      0.254D-01-0.686D-01 0.172D+00-0.532D+00 0.141D+01
 Gap=     0.381 Goal=   None    Shift=    0.000
 RMSDP=6.53D-08 MaxDP=2.71D-07 DE=-1.25D-11 OVMax= 5.64D-07

 Cycle  12  Pass 1  IDiag  3:
 E= 0.130190242736248     Delta-E=       -0.000000000001 Rises=F Damp=F
 DIIS: error= 1.29D-08 at cycle  12 NSaved=  12.
 NSaved=12 IEnMin=12 EnMin= 0.130190242736248     IErMin=12 ErrMin= 1.29D-08
 ErrMax= 1.29D-08  0.00D+00 EMaxC= 1.00D-01 BMatC= 1.09D-14 BMatP= 1.29D-13
 IDIUse=1 WtCom= 1.00D+00 WtEn= 0.00D+00
 Coeff-Com: -0.998D-06 0.771D-05-0.125D-04 0.141D-04-0.284D-04 0.882D-03
 Coeff-Com: -0.381D-02 0.101D-01-0.265D-01 0.125D+00-0.629D+00 0.152D+01
 Coeff:     -0.998D-06 0.771D-05-0.125D-04 0.141D-04-0.284D-04 0.882D-03
 Coeff:     -0.381D-02 0.101D-01-0.265D-01 0.125D+00-0.629D+00 0.152D+01
 Gap=     0.381 Goal=   None    Shift=    0.000
 RMSDP=2.18D-08 MaxDP=9.73D-08 DE=-8.95D-13 OVMax= 2.52D-07

 Cycle  13  Pass 1  IDiag  3:
 E= 0.130190242736560     Delta-E=        0.000000000000 Rises=F Damp=F
 DIIS: error= 3.69D-09 at cycle  13 NSaved=  13.
 NSaved=13 IEnMin=12 EnMin= 0.130190242736248     IErMin=13 ErrMin= 3.69D-09
 ErrMax= 3.69D-09  0.00D+00 EMaxC= 1.00D-01 BMatC= 6.65D-16 BMatP= 1.09D-14
 IDIUse=1 WtCom= 1.00D+00 WtEn= 0.00D+00
 Coeff-Com:  0.928D-07-0.748D-06 0.330D-05-0.112D-04-0.123D-04 0.119D-03
 Coeff-Com: -0.396D-03 0.125D-02-0.247D-02-0.158D-01 0.200D+00-0.736D+00
 Coeff-Com:  0.155D+01
 Coeff:      0.928D-07-0.748D-06 0.330D-05-0.112D-04-0.123D-04 0.119D-03
 Coeff:     -0.396D-03 0.125D-02-0.247D-02-0.158D-01 0.200D+00-0.736D+00
 Coeff:      0.155D+01
 Gap=     0.381 Goal=   None    Shift=    0.000
 RMSDP=5.34D-09 MaxDP=2.49D-08 DE= 3.13D-13 OVMax= 6.39D-08

 Cycle  14  Pass 2  IDiag  1:
 SCF Done:  E(RAM1) =  0.130190242737     A.U. after   14 cycles
            NFock= 13  Conv=0.53D-08     -V/T= 1.0079
 KE=-1.645373868931D+01 PE=-1.731359882353D+02 EE= 8.522903779373D+01
 Leave Link  502 at Mon Mar 14 17:12:45 2016, MaxMem=    33554432 cpu:         0.0
 (Enter /opt/g09/g09/l601.exe)
 Copying SCF densities to generalized density rwf, IOpCl= 0 IROHF=0.

 **********************************************************************

            Population analysis using the SCF density.

 **********************************************************************

 Orbital symmetries:
       Occupied  (A) (A) (A) (A) (A) (A) (A) (A) (A) (A) (A) (A)
                 (A)
       Virtual   (A) (A) (A) (A) (A) (A) (A) (A) (A) (A) (A)
 The electronic state is 1-A.
 Alpha  occ. eigenvalues --   -1.61607  -1.24986  -1.07851  -0.81185  -0.79676
 Alpha  occ. eigenvalues --   -0.67205  -0.58796  -0.55668  -0.51105  -0.49460
 Alpha  occ. eigenvalues --   -0.47293  -0.38064  -0.33686
 Alpha virt. eigenvalues --    0.04428   0.07453   0.10967   0.14922   0.16525
 Alpha virt. eigenvalues --    0.17410   0.19506   0.20066   0.20785   0.22125
 Alpha virt. eigenvalues --    0.23024
          Condensed to atoms (all electrons):
               1          2          3          4          5          6
     1  C    4.188936   0.000000   0.000000   0.000000   0.000000   0.000000
     2  C    0.000000   4.152484   0.000000   0.000000   0.000000   0.000000
     3  O    0.000000   0.000000   5.945235   0.000000   0.000000   0.000000
     4  C    0.000000   0.000000   0.000000   4.148284   0.000000   0.000000
     5  C    0.000000   0.000000   0.000000   0.000000   4.152599   0.000000
     6  H    0.000000   0.000000   0.000000   0.000000   0.000000   0.859618
     7  H    0.000000   0.000000   0.000000   0.000000   0.000000   0.000000
     8  H    0.000000   0.000000   0.000000   0.000000   0.000000   0.000000
     9  H    0.000000   0.000000   0.000000   0.000000   0.000000   0.000000
               7          8          9
     1  C    0.000000   0.000000   0.000000
     2  C    0.000000   0.000000   0.000000
     3  O    0.000000   0.000000   0.000000
     4  C    0.000000   0.000000   0.000000
     5  C    0.000000   0.000000   0.000000
     6  H    0.000000   0.000000   0.000000
     7  H    0.847160   0.000000   0.000000
     8  H    0.000000   0.837609   0.000000
     9  H    0.000000   0.000000   0.868075
 Mulliken charges:
               1
     1  C   -0.188936
     2  C   -0.152484
     3  O    0.054765
     4  C   -0.148284
     5  C   -0.152599
     6  H    0.140382
     7  H    0.152840
     8  H    0.162391
     9  H    0.131925
 Sum of Mulliken charges =   0.00000
 Mulliken charges with hydrogens summed into heavy atoms:
               1
     1  C   -0.057010
     2  C    0.009906
     3  O    0.054765
     4  C    0.004556
     5  C   -0.012217
 Charge=              0.0000 electrons
 Dipole moment (field-independent basis, Debye):
    X=             -0.1765    Y=              0.1048    Z=              0.0314  Tot=              0.2076
 N-N= 1.044908793736D+02 E-N=-1.731359882173D+02  KE=-1.645373868931D+01
 Leave Link  601 at Mon Mar 14 17:12:45 2016, MaxMem=    33554432 cpu:         0.0
 (Enter /opt/g09/g09/l701.exe)
 Compute integral first derivatives.
 ... and contract with generalized density number  0.
 Leave Link  701 at Mon Mar 14 17:12:45 2016, MaxMem=    33554432 cpu:         0.0
 (Enter /opt/g09/g09/l702.exe)
 L702 exits ... SP integral derivatives will be done elsewhere.
 Leave Link  702 at Mon Mar 14 17:12:45 2016, MaxMem=    33554432 cpu:         0.0
 (Enter /opt/g09/g09/l703.exe)
 Compute integral first derivatives, UseDBF=F ICtDFT=           0.
 Integral derivatives from FoFJK, PRISM(SPDF).
 Calling FoFJK, ICntrl=      2127 FMM=F ISym2X=0 I1Cent= 0 IOpClX= 0 NMat=1 NMatS=1 NMatT=0.
 FoFJK:  IHMeth= 8 ICntrl=    2127 DoSepK=F KAlg= 0 I1Cent=   0 FoldK=F
 IRaf=         0 NMat=   1 IRICut=       1 DoRegI=T DoRafI=F ISym2E= 0.
 FoFCou: FMM=F IPFlag=           0 FMFlag=      100000 FMFlg1=         800
         NFxFlg=           0 DoJE=F BraDBF=F KetDBF=F FulRan=T
         wScrn=  0.000000 ICntrl=    2127 IOpCl=  0 I1Cent=           0 NGrid=           0
         NMat0=    1 NMatS0=      1 NMatT0=    0 NMatD0=    1 NMtDS0=    0 NMtDT0=    0
 Symmetry not used in FoFCou.
 Leave Link  703 at Mon Mar 14 17:12:45 2016, MaxMem=    33554432 cpu:         0.0
 (Enter /opt/g09/g09/l716.exe)
 Dipole        =-6.94286774D-02 4.12422892D-02 1.23447686D-02
 ***** Axes restored to original set *****
 -------------------------------------------------------------------
 Center     Atomic                   Forces (Hartrees/Bohr)
 Number     Number              X              Y              Z
 -------------------------------------------------------------------
      1        6           0.087309159   -0.041408044   -0.001221341
      2        6           0.056078334   -0.119038280   -0.014515206
      3        8          -0.142167371    0.006134950    0.007490481
      4        6          -0.017548555    0.194879775   -0.009166146
      5        6           0.014070913   -0.035825593    0.015284960
      6        1           0.022408206    0.014209394   -0.008048807
      7        1           0.013421428   -0.024511655    0.002858457
      8        1          -0.008436033   -0.006209735    0.006043058
      9        1          -0.025136081    0.011769187    0.001274545
 -------------------------------------------------------------------
 Cartesian Forces:  Max     0.194879775 RMS     0.057648757
 Leave Link  716 at Mon Mar 14 17:12:45 2016, MaxMem=    33554432 cpu:         0.0
 (Enter /opt/g09/g09/l103.exe)

 GradGradGradGradGradGradGradGradGradGradGradGradGradGradGradGradGradGrad
 Berny optimization.
 FormGI is forming the generalized inverse of G from B-inverse, IUseBI=4.
 Internal  Forces:  Max     0.139141008 RMS     0.036371004
 Search for a local minimum.
 Step number   1 out of a maximum of   48
 All quantities printed in internal units (Hartrees-Bohrs-Radians)
 RMS Force = .36371D-01 SwitMx=.10000D-02 MixMth= 1
 Mixed Optimization -- RFO/linear search
 Second derivative matrix not updated -- first step.
 ITU=  0
     Eigenvalues ---    0.02098   0.02370   0.02633   0.02812   0.02941
     Eigenvalues ---    0.02966   0.14588   0.15695   0.15969   0.15991
     Eigenvalues ---    0.22011   0.22925   0.29872   0.31877   0.37010
     Eigenvalues ---    0.38896   0.41063   0.47402   0.55761   0.62497
     Eigenvalues ---    0.64809
 RFO step:  Lambda=-8.32061134D-02 EMin= 2.09759274D-02
 Linear search not attempted -- first point.
 Maximum step size (   0.300) exceeded in Quadratic search.
    -- Step size scaled by   0.785
 Iteration  1 RMS(Cart)=  0.04916053 RMS(Int)=  0.00159882
 Iteration  2 RMS(Cart)=  0.00131373 RMS(Int)=  0.00065313
 Iteration  3 RMS(Cart)=  0.00000190 RMS(Int)=  0.00065313
 Iteration  4 RMS(Cart)=  0.00000000 RMS(Int)=  0.00065313
 ITry= 1 IFail=0 DXMaxC= 1.67D-01 DCOld= 1.00D+10 DXMaxT= 3.00D-01 DXLimC= 3.00D+00 Rises=F
 Variable       Old X    -DE/DX   Delta X   Delta X   Delta X     New X
                                 (Linear)    (Quad)   (Total)
    R1        2.57037   0.03976   0.00000   0.04541   0.04447   2.61484
    R2        2.70581   0.04327   0.00000   0.05491   0.05477   2.76058
    R3        2.11070  -0.02732   0.00000  -0.05335  -0.05335   2.05735
    R4        2.46089   0.13914   0.00000   0.15215   0.15171   2.61260
    R5        2.02531   0.00865   0.00000   0.01498   0.01498   2.04029
    R6        2.45961   0.11637   0.00000   0.13017   0.13084   2.59045
    R7        2.52330   0.07347   0.00000   0.08677   0.08764   2.61095
    R8        2.14920  -0.02800   0.00000  -0.05753  -0.05753   2.09167
    R9        1.96833   0.02469   0.00000   0.03924   0.03924   2.00758
    A1        1.88539   0.00298   0.00000  -0.02624  -0.02723   1.85815
    A2        2.26035  -0.00669   0.00000  -0.00363  -0.00316   2.25719
    A3        2.13703   0.00375   0.00000   0.03014   0.03061   2.16765
    A4        1.91859   0.00190   0.00000   0.00769   0.00627   1.92486
    A5        2.24253   0.00555   0.00000   0.01941   0.01988   2.26242
    A6        2.10252  -0.00643   0.00000  -0.01954  -0.01931   2.08321
    A7        1.83738  -0.00849   0.00000   0.02148   0.02191   1.85929
    A8        2.04750  -0.04252   0.00000  -0.09675  -0.09535   1.95215
    A9        1.98263   0.02194   0.00000   0.05080   0.05010   2.03273
   A10        2.25045   0.02062   0.00000   0.04644   0.04571   2.29617
   A11        1.73373   0.04636   0.00000   0.09550   0.09577   1.82950
   A12        2.24763  -0.02365   0.00000  -0.04622  -0.04729   2.20034
   A13        2.25208  -0.01967   0.00000  -0.03188  -0.03257   2.21952
    D1        0.04768  -0.00158   0.00000  -0.01507  -0.01500   0.03268
    D2        2.97551   0.00300   0.00000   0.02301   0.02378   2.99929
    D3       -3.12483   0.00003   0.00000  -0.00459  -0.00509  -3.12992
    D4       -0.19701   0.00461   0.00000   0.03349   0.03370  -0.16331
    D5       -0.01212  -0.00057   0.00000  -0.00024  -0.00063  -0.01275
    D6        2.81451   0.00803   0.00000   0.05322   0.05264   2.86715
    D7       -3.12544  -0.00182   0.00000  -0.00919  -0.00925  -3.13469
    D8       -0.29881   0.00679   0.00000   0.04426   0.04402  -0.25479
    D9       -0.06232   0.00278   0.00000   0.02174   0.02259  -0.03973
   D10       -3.01005  -0.00297   0.00000  -0.01798  -0.01681  -3.02686
   D11        0.05877  -0.00506   0.00000  -0.02804  -0.02717   0.03160
   D12        3.12991  -0.00341   0.00000  -0.01901  -0.01877   3.11114
   D13       -0.02852   0.00259   0.00000   0.01700   0.01681  -0.01172
   D14       -2.85398  -0.00505   0.00000  -0.03297  -0.03379  -2.88777
   D15       -3.08708   0.00124   0.00000   0.00764   0.00803  -3.07904
   D16        0.37065  -0.00640   0.00000  -0.04234  -0.04257   0.32809
         Item               Value     Threshold  Converged?
 Maximum Force            0.139141     0.000450     NO 
 RMS     Force            0.036371     0.000300     NO 
 Maximum Displacement     0.167373     0.001800     NO 
 RMS     Displacement     0.049102     0.001200     NO 
 Predicted change in Energy=-4.388327D-02
 Lowest energy point so far.  Saving SCF results.
 GradGradGradGradGradGradGradGradGradGradGradGradGradGradGradGradGradGrad

 Leave Link  103 at Mon Mar 14 17:12:45 2016, MaxMem=    33554432 cpu:         0.0
 (Enter /opt/g09/g09/l202.exe)
                          Input orientation:                          
 ---------------------------------------------------------------------
 Center     Atomic      Atomic             Coordinates (Angstroms)
 Number     Number       Type             X           Y           Z
 ---------------------------------------------------------------------
      1          6           0        0.939591   -0.750695   -0.052481
      2          6           0       -0.390508   -1.116329    0.056227
      3          8           0       -1.197523    0.006213    0.058889
      4          6           0       -0.359218    1.089351    0.002610
      5          6           0        0.966846    0.709677   -0.077177
      6          1           0        1.820446    1.322110    0.080661
      7          1           0       -0.841426    2.084991   -0.033728
      8          1           0       -0.843701   -2.093917   -0.011846
      9          1           0        1.826997   -1.380044   -0.093753
 ---------------------------------------------------------------------
                    Distance matrix (angstroms):
                    1          2          3          4          5
     1  C    0.000000
     2  C    1.383716   0.000000
     3  O    2.269927   1.382527   0.000000
     4  C    2.252933   2.206553   1.370807   0.000000
     5  C    1.460835   2.279146   2.279884   1.381653   0.000000
     6  H    2.256137   3.291641   3.292446   2.193445   1.062365
     7  H    3.348655   3.234172   2.111090   1.106862   2.272273
     8  H    2.232941   1.079674   2.130901   3.219958   3.338037
     9  H    1.088703   2.238162   3.330575   3.299505   2.259883
                    6          7          8          9
     6  H    0.000000
     7  H    2.771396   0.000000
     8  H    4.333068   4.178966   0.000000
     9  H    2.707786   4.373849   2.765673   0.000000
 Stoichiometry    C4H4O
 Framework group  C1[X(C4H4O)]
 Deg. of freedom    21
 Full point group                 C1      NOp   1
 RotChk:  IX=0 Diff= 1.12D+00
 Largest Abelian subgroup         C1      NOp   1
 Largest concise Abelian subgroup C1      NOp   1
                         Standard orientation:                         
 ---------------------------------------------------------------------
 Center     Atomic      Atomic             Coordinates (Angstroms)
 Number     Number       Type             X           Y           Z
 ---------------------------------------------------------------------
      1          6           0        0.743347    0.956260   -0.015093
      2          6           0        1.103006   -0.379089    0.031362
      3          8           0       -0.023582   -1.180071    0.006765
      4          6           0       -1.102827   -0.334948   -0.003665
      5          6           0       -0.717012    0.991535   -0.027201
      6          1           0       -1.323877    1.840144    0.173291
      7          1           0       -2.101159   -0.810314   -0.053727
      8          1           0        2.077730   -0.833436   -0.064443
      9          1           0        1.376882    1.841621   -0.021651
 ---------------------------------------------------------------------
 Rotational constants (GHZ):      9.2667273      8.9745958      4.5639549
 Leave Link  202 at Mon Mar 14 17:12:45 2016, MaxMem=    33554432 cpu:         0.0
 (Enter /opt/g09/g09/l301.exe)

 Semi-emprical parameters in input format:
 Method=8 CoreType=1 PeptideFC=0.0114505045 RIJScale=0.5291772086
 ****
 H       
 PQN=1 NValence=1 F0ss=0.4575101502 ZetaOverlap=1.1880780000 U=-0.4188110042
 Beta=-0.2268825074 CoreKO=1.0589197790 KON=0,0,0,0.9729128786 KON=1,0,1,1.0589197790
 KON=0,1,1,1.0589197790 KON=2,1,1,1.0589197790 EISol=-0.4188110042 EHeat=0.0830298228
 Alpha=1.5252601686
 GCore=0.0085277107,1.4001425905,2.2676713595
 GCore=0.0003534810,1.4001425905,3.4015070392
 GCore=-0.0012733648,0.5600570362,3.9684248791
 ****
 C       
 PQN=2,2 NValence=4 F0ss=0.4494442496 F0sp=0.4215147623 F0pp=0.3768030831 F2pp=0.1898715146
 G1sp=0.2679025821
 ZetaOverlap=1.8086650000,1.6851160000
 U=-1.9120180828,-1.4557965594
 Beta=-0.5775444233,-0.2836784428 DDN=0,1,0.8236736000 DDN=1,1,0.7848722650
 CoreKO=1.1124284736 KON=0,0,0,1.0130417543 KON=1,0,1,0.8016545580 KON=0,1,1,1.1124284736
 KON=2,1,1,0.7783928119 EISol=-4.4398989268 EHeat=0.2723305520 Alpha=1.4014062429
 DipHyp=1.6472524267
 GCore=0.0007885612,1.4001425905,3.1470066108
 GCore=0.0030846292,1.4001425905,3.2670454744
 GCore=-0.0013931594,1.3423965362,3.8739385724
 GCore=-0.0000875022,1.4001425905,5.0077742521
 ****
 O       
 PQN=2,2 NValence=6 F0ss=0.5666745976 F0sp=0.5321302318 F0pp=0.5052463918 F2pp=0.2358081713
 G1sp=0.4343770262
 ZetaOverlap=3.1080320000,2.7008530850
 U=-3.5951865036,-2.8760896690
 Beta=-1.0757546603,-1.0387102641 DDN=0,1,0.5174116255 DDN=1,1,0.4852322000
 CoreKO=0.8822957477 KON=0,0,0,0.8822957477 KON=1,0,1,0.5019543089 KON=0,1,1,0.8822957477
 KON=2,1,1,0.5515584117 EISol=-11.6164441184 EHeat=0.0949133088 Alpha=2.3576807890
 DipHyp=1.0347637167
 GCore=0.0195117322,1.4001425905,1.6023328031
 GCore=0.0056550009,1.9601996266,2.9938713957
 ****
 
 Standard basis: VSTO-6G (5D, 7F)
 Ernie: Thresh=  0.10000D-02 Tol=  0.10000D-05 Strict=F.
  NNHCO=     0 NNPyr=     0 NCTC=     0               EPep=         0.000000000
    EC=        68.089896398  ECS=         1.727347241   EG=         0.333026611
   EHC=         0.000000000  EAt=       -31.051283842  AtH=         1.516354808
 EPDDG=         0.000000000  ECC=        70.150270250 EAtT=        32.567638650
 There are    24 symmetry adapted cartesian basis functions of A   symmetry.
 There are    24 symmetry adapted basis functions of A   symmetry.
    24 basis functions,   144 primitive gaussians,    24 cartesian basis functions
    13 alpha electrons       13 beta electrons
       nuclear repulsion energy       102.7179089001 Hartrees.
 IExCor=    0 DFT=F Ex=HF Corr=None ExCW=0 ScaHFX=  1.000000
 ScaDFX=  1.000000  1.000000  1.000000  1.000000 ScalE2=  1.000000  1.000000
 IRadAn=      0 IRanWt=     -1 IRanGd=            0 ICorTp=0 IEmpDi=  4
 Integral buffers will be    131072 words long.
 Regular integral format.
 Two-electron integral symmetry is turned off.
 Leave Link  301 at Mon Mar 14 17:12:45 2016, MaxMem=    33554432 cpu:         0.0
 (Enter /opt/g09/g09/l302.exe)
 Do NDO integrals.
 NPDir=0 NMtPBC=     1 NCelOv=     1 NCel=       1 NClECP=     1 NCelD=      1
         NCelK=      1 NCelE2=     1 NClLst=     1 CellRange=     0.0.
 One-electron integrals computed using PRISM.
 NBasis=    24 RedAO= F EigKep=  0.00D+00  NBF=    24
 NBsUse=    24 1.00D-04 EigRej=  0.00D+00 NBFU=    24
 Leave Link  302 at Mon Mar 14 17:12:45 2016, MaxMem=    33554432 cpu:         0.0
 (Enter /opt/g09/g09/l303.exe)
 DipDrv:  MaxL=1.
 Leave Link  303 at Mon Mar 14 17:12:45 2016, MaxMem=    33554432 cpu:         0.0
 (Enter /opt/g09/g09/l401.exe)
 Initial guess from the checkpoint file:  "/opt/g09/scratch/Gau-13224.chk"
 B after Tr=     0.000000    0.000000    0.000000
         Rot=    0.919524    0.000242   -0.000169    0.393034 Ang=  46.29 deg.
 Guess basis will be translated and rotated to current coordinates.
 JPrj=0 DoOrth=T DoCkMO=T.
 Leave Link  401 at Mon Mar 14 17:12:45 2016, MaxMem=    33554432 cpu:         0.0
 (Enter /opt/g09/g09/l502.exe)
 Closed shell SCF:
 Using DIIS extrapolation, IDIIS=  1040.
 Overlap will be assumed to be unity.
 Two-electron integral symmetry not used.
 Keep J ints in memory in canonical form, NReq=888082.
 IVT=       79475 IEndB=       79475 NGot=    33554432 MDV=    33473473
 LenX=    33473473 LenY=    33472456
 Requested convergence on RMS density matrix=1.00D-08 within 128 cycles.
 Requested convergence on MAX density matrix=1.00D-06.
 Requested convergence on             energy=1.00D-06.
 No special actions if energy rises.
 FoFCou: FMM=F IPFlag=           0 FMFlag=           0 FMFlg1=           0
         NFxFlg=           0 DoJE=F BraDBF=F KetDBF=F FulRan=T
         wScrn=  0.000000 ICntrl=     600 IOpCl=  2 I1Cent=           0 NGrid=           0
         NMat0=    1 NMatS0=     54 NMatT0=    0 NMatD0=    1 NMtDS0=    0 NMtDT0=    0
 Symmetry not used in FoFCou.

 Cycle   1  Pass 1  IDiag  1:
 E= 0.107537551159425    
 DIIS: error= 8.27D-03 at cycle   1 NSaved=   1.
 NSaved= 1 IEnMin= 1 EnMin= 0.107537551159425     IErMin= 1 ErrMin= 8.27D-03
 ErrMax= 8.27D-03  0.00D+00 EMaxC= 1.00D-01 BMatC= 2.74D-03 BMatP= 2.74D-03
 IDIUse=3 WtCom= 9.17D-01 WtEn= 8.27D-02
 Coeff-Com:  0.100D+01
 Coeff-En:   0.100D+01
 Coeff:      0.100D+01
 GapD=    2.000 DampG=2.000 DampE=1.000 DampFc=2.0000 IDamp=-1.
 RMSDP=3.17D-03 MaxDP=1.61D-02              OVMax= 0.00D+00

 Cycle   2  Pass 1  IDiag  3:
 E= 0.100947917806693     Delta-E=       -0.006589633353 Rises=F Damp=F
 DIIS: error= 2.02D-03 at cycle   2 NSaved=   2.
 NSaved= 2 IEnMin= 2 EnMin= 0.100947917806693     IErMin= 2 ErrMin= 2.02D-03
 ErrMax= 2.02D-03  0.00D+00 EMaxC= 1.00D-01 BMatC= 1.96D-04 BMatP= 2.74D-03
 IDIUse=3 WtCom= 9.80D-01 WtEn= 2.02D-02
 Coeff-Com: -0.274D+00 0.127D+01
 Coeff-En:   0.000D+00 0.100D+01
 Coeff:     -0.268D+00 0.127D+01
 Gap=     0.365 Goal=   None    Shift=    0.000
 RMSDP=1.31D-03 MaxDP=5.51D-03 DE=-6.59D-03 OVMax= 7.03D-03

 Cycle   3  Pass 1  IDiag  3:
 E= 0.100234880562383     Delta-E=       -0.000713037244 Rises=F Damp=F
 DIIS: error= 4.44D-04 at cycle   3 NSaved=   3.
 NSaved= 3 IEnMin= 3 EnMin= 0.100234880562383     IErMin= 3 ErrMin= 4.44D-04
 ErrMax= 4.44D-04  0.00D+00 EMaxC= 1.00D-01 BMatC= 1.12D-05 BMatP= 1.96D-04
 IDIUse=3 WtCom= 9.96D-01 WtEn= 4.44D-03
 Coeff-Com:  0.408D-01-0.313D+00 0.127D+01
 Coeff-En:   0.000D+00 0.000D+00 0.100D+01
 Coeff:      0.406D-01-0.312D+00 0.127D+01
 Gap=     0.365 Goal=   None    Shift=    0.000
 RMSDP=4.66D-04 MaxDP=2.91D-03 DE=-7.13D-04 OVMax= 4.55D-03

 Cycle   4  Pass 1  IDiag  3:
 E= 0.100165288555360     Delta-E=       -0.000069592007 Rises=F Damp=F
 DIIS: error= 2.03D-04 at cycle   4 NSaved=   4.
 NSaved= 4 IEnMin= 4 EnMin= 0.100165288555360     IErMin= 4 ErrMin= 2.03D-04
 ErrMax= 2.03D-04  0.00D+00 EMaxC= 1.00D-01 BMatC= 1.72D-06 BMatP= 1.12D-05
 IDIUse=3 WtCom= 9.98D-01 WtEn= 2.03D-03
 Coeff-Com:  0.178D-01-0.361D-01-0.435D+00 0.145D+01
 Coeff-En:   0.000D+00 0.000D+00 0.000D+00 0.100D+01
 Coeff:      0.178D-01-0.360D-01-0.434D+00 0.145D+01
 Gap=     0.365 Goal=   None    Shift=    0.000
 RMSDP=2.63D-04 MaxDP=1.81D-03 DE=-6.96D-05 OVMax= 2.69D-03

 Cycle   5  Pass 1  IDiag  3:
 E= 0.100150719242990     Delta-E=       -0.000014569312 Rises=F Damp=F
 DIIS: error= 8.52D-05 at cycle   5 NSaved=   5.
 NSaved= 5 IEnMin= 5 EnMin= 0.100150719242990     IErMin= 5 ErrMin= 8.52D-05
 ErrMax= 8.52D-05  0.00D+00 EMaxC= 1.00D-01 BMatC= 1.97D-07 BMatP= 1.72D-06
 IDIUse=1 WtCom= 1.00D+00 WtEn= 0.00D+00
 Coeff-Com: -0.147D-01 0.464D-01 0.222D+00-0.111D+01 0.186D+01
 Coeff:     -0.147D-01 0.464D-01 0.222D+00-0.111D+01 0.186D+01
 Gap=     0.365 Goal=   None    Shift=    0.000
 RMSDP=1.24D-04 MaxDP=9.82D-04 DE=-1.46D-05 OVMax= 1.49D-03

 Cycle   6  Pass 1  IDiag  3:
 E= 0.100148688443667     Delta-E=       -0.000002030799 Rises=F Damp=F
 DIIS: error= 1.57D-05 at cycle   6 NSaved=   6.
 NSaved= 6 IEnMin= 6 EnMin= 0.100148688443667     IErMin= 6 ErrMin= 1.57D-05
 ErrMax= 1.57D-05  0.00D+00 EMaxC= 1.00D-01 BMatC= 7.94D-09 BMatP= 1.97D-07
 IDIUse=1 WtCom= 1.00D+00 WtEn= 0.00D+00
 Coeff-Com:  0.869D-02-0.288D-01-0.116D+00 0.624D+00-0.117D+01 0.168D+01
 Coeff:      0.869D-02-0.288D-01-0.116D+00 0.624D+00-0.117D+01 0.168D+01
 Gap=     0.365 Goal=   None    Shift=    0.000
 RMSDP=2.20D-05 MaxDP=1.84D-04 DE=-2.03D-06 OVMax= 2.61D-04

 Cycle   7  Pass 1  IDiag  3:
 E= 0.100148622143109     Delta-E=       -0.000000066301 Rises=F Damp=F
 DIIS: error= 1.95D-06 at cycle   7 NSaved=   7.
 NSaved= 7 IEnMin= 7 EnMin= 0.100148622143109     IErMin= 7 ErrMin= 1.95D-06
 ErrMax= 1.95D-06  0.00D+00 EMaxC= 1.00D-01 BMatC= 2.94D-10 BMatP= 7.94D-09
 IDIUse=1 WtCom= 1.00D+00 WtEn= 0.00D+00
 Coeff-Com: -0.365D-02 0.120D-01 0.487D-01-0.261D+00 0.493D+00-0.799D+00
 Coeff-Com:  0.151D+01
 Coeff:     -0.365D-02 0.120D-01 0.487D-01-0.261D+00 0.493D+00-0.799D+00
 Coeff:      0.151D+01
 Gap=     0.365 Goal=   None    Shift=    0.000
 RMSDP=3.20D-06 MaxDP=2.17D-05 DE=-6.63D-08 OVMax= 2.65D-05

 Cycle   8  Pass 1  IDiag  3:
 E= 0.100148620154712     Delta-E=       -0.000000001988 Rises=F Damp=F
 DIIS: error= 4.17D-07 at cycle   8 NSaved=   8.
 NSaved= 8 IEnMin= 8 EnMin= 0.100148620154712     IErMin= 8 ErrMin= 4.17D-07
 ErrMax= 4.17D-07  0.00D+00 EMaxC= 1.00D-01 BMatC= 1.48D-11 BMatP= 2.94D-10
 IDIUse=1 WtCom= 1.00D+00 WtEn= 0.00D+00
 Coeff-Com:  0.131D-02-0.426D-02-0.180D-01 0.947D-01-0.179D+00 0.293D+00
 Coeff-Com: -0.679D+00 0.149D+01
 Coeff:      0.131D-02-0.426D-02-0.180D-01 0.947D-01-0.179D+00 0.293D+00
 Coeff:     -0.679D+00 0.149D+01
 Gap=     0.365 Goal=   None    Shift=    0.000
 RMSDP=7.90D-07 MaxDP=4.46D-06 DE=-1.99D-09 OVMax= 5.81D-06

 Cycle   9  Pass 1  IDiag  3:
 E= 0.100148620037331     Delta-E=       -0.000000000117 Rises=F Damp=F
 DIIS: error= 1.29D-07 at cycle   9 NSaved=   9.
 NSaved= 9 IEnMin= 9 EnMin= 0.100148620037331     IErMin= 9 ErrMin= 1.29D-07
 ErrMax= 1.29D-07  0.00D+00 EMaxC= 1.00D-01 BMatC= 1.16D-12 BMatP= 1.48D-11
 IDIUse=1 WtCom= 1.00D+00 WtEn= 0.00D+00
 Coeff-Com: -0.341D-03 0.108D-02 0.484D-02-0.249D-01 0.470D-01-0.781D-01
 Coeff-Com:  0.203D+00-0.665D+00 0.151D+01
 Coeff:     -0.341D-03 0.108D-02 0.484D-02-0.249D-01 0.470D-01-0.781D-01
 Coeff:      0.203D+00-0.665D+00 0.151D+01
 Gap=     0.365 Goal=   None    Shift=    0.000
 RMSDP=2.26D-07 MaxDP=1.06D-06 DE=-1.17D-10 OVMax= 1.99D-06

 Cycle  10  Pass 1  IDiag  3:
 E= 0.100148620027682     Delta-E=       -0.000000000010 Rises=F Damp=F
 DIIS: error= 3.17D-08 at cycle  10 NSaved=  10.
 NSaved=10 IEnMin=10 EnMin= 0.100148620027682     IErMin=10 ErrMin= 3.17D-08
 ErrMax= 3.17D-08  0.00D+00 EMaxC= 1.00D-01 BMatC= 7.40D-14 BMatP= 1.16D-12
 IDIUse=1 WtCom= 1.00D+00 WtEn= 0.00D+00
 Coeff-Com:  0.405D-04-0.118D-03-0.649D-03 0.306D-02-0.583D-02 0.984D-02
 Coeff-Com: -0.311D-01 0.151D+00-0.590D+00 0.146D+01
 Coeff:      0.405D-04-0.118D-03-0.649D-03 0.306D-02-0.583D-02 0.984D-02
 Coeff:     -0.311D-01 0.151D+00-0.590D+00 0.146D+01
 Gap=     0.365 Goal=   None    Shift=    0.000
 RMSDP=5.79D-08 MaxDP=2.45D-07 DE=-9.65D-12 OVMax= 5.16D-07

 Cycle  11  Pass 1  IDiag  3:
 E= 0.100148620027127     Delta-E=       -0.000000000001 Rises=F Damp=F
 DIIS: error= 5.89D-09 at cycle  11 NSaved=  11.
 NSaved=11 IEnMin=11 EnMin= 0.100148620027127     IErMin=11 ErrMin= 5.89D-09
 ErrMax= 5.89D-09  0.00D+00 EMaxC= 1.00D-01 BMatC= 3.72D-15 BMatP= 7.40D-14
 IDIUse=1 WtCom= 1.00D+00 WtEn= 0.00D+00
 Coeff-Com: -0.116D-05-0.169D-05 0.561D-04-0.147D-03 0.296D-03-0.554D-03
 Coeff-Com:  0.411D-02-0.362D-01 0.197D+00-0.681D+00 0.152D+01
 Coeff:     -0.116D-05-0.169D-05 0.561D-04-0.147D-03 0.296D-03-0.554D-03
 Coeff:      0.411D-02-0.362D-01 0.197D+00-0.681D+00 0.152D+01
 Gap=     0.365 Goal=   None    Shift=    0.000
 RMSDP=1.21D-08 MaxDP=5.60D-08 DE=-5.54D-13 OVMax= 9.47D-08

 Cycle  12  Pass 1  IDiag  3:
 E= 0.100148620027341     Delta-E=        0.000000000000 Rises=F Damp=F
 DIIS: error= 1.48D-09 at cycle  12 NSaved=  12.
 NSaved=12 IEnMin=11 EnMin= 0.100148620027127     IErMin=12 ErrMin= 1.48D-09
 ErrMax= 1.48D-09  0.00D+00 EMaxC= 1.00D-01 BMatC= 1.90D-16 BMatP= 3.72D-15
 IDIUse=1 WtCom= 1.00D+00 WtEn= 0.00D+00
 Coeff-Com: -0.660D-06 0.444D-05-0.773D-05-0.218D-04 0.341D-04-0.346D-04
 Coeff-Com: -0.106D-02 0.132D-01-0.784D-01 0.290D+00-0.787D+00 0.156D+01
 Coeff:     -0.660D-06 0.444D-05-0.773D-05-0.218D-04 0.341D-04-0.346D-04
 Coeff:     -0.106D-02 0.132D-01-0.784D-01 0.290D+00-0.787D+00 0.156D+01
 Gap=     0.365 Goal=   None    Shift=    0.000
 RMSDP=2.68D-09 MaxDP=1.23D-08 DE= 2.13D-13 OVMax= 1.89D-08

 Cycle  13  Pass 2  IDiag  1:
 SCF Done:  E(RAM1) =  0.100148620027     A.U. after   13 cycles
            NFock= 12  Conv=0.27D-08     -V/T= 1.0062
 KE=-1.624390895737D+01 PE=-1.703152329339D+02 EE= 8.394138161125D+01
 Leave Link  502 at Mon Mar 14 17:12:45 2016, MaxMem=    33554432 cpu:         0.0
 (Enter /opt/g09/g09/l701.exe)
 Compute integral first derivatives.
 ... and contract with generalized density number  0.
 Leave Link  701 at Mon Mar 14 17:12:45 2016, MaxMem=    33554432 cpu:         0.0
 (Enter /opt/g09/g09/l702.exe)
 L702 exits ... SP integral derivatives will be done elsewhere.
 Leave Link  702 at Mon Mar 14 17:12:45 2016, MaxMem=    33554432 cpu:         0.0
 (Enter /opt/g09/g09/l703.exe)
 Compute integral first derivatives, UseDBF=F ICtDFT=           0.
 Integral derivatives from FoFJK, PRISM(SPDF).
 Calling FoFJK, ICntrl=      2127 FMM=F ISym2X=0 I1Cent= 0 IOpClX= 0 NMat=1 NMatS=1 NMatT=0.
 FoFJK:  IHMeth= 8 ICntrl=    2127 DoSepK=F KAlg= 0 I1Cent=   0 FoldK=F
 IRaf=         0 NMat=   1 IRICut=       1 DoRegI=T DoRafI=F ISym2E= 0.
 FoFCou: FMM=F IPFlag=           0 FMFlag=      100000 FMFlg1=         800
         NFxFlg=           0 DoJE=F BraDBF=F KetDBF=F FulRan=T
         wScrn=  0.000000 ICntrl=    2127 IOpCl=  0 I1Cent=           0 NGrid=           0
         NMat0=    1 NMatS0=      1 NMatT0=    0 NMatD0=    1 NMtDS0=    0 NMtDT0=    0
 Symmetry not used in FoFCou.
 Leave Link  703 at Mon Mar 14 17:12:45 2016, MaxMem=    33554432 cpu:         0.0
 (Enter /opt/g09/g09/l716.exe)
 Dipole        =-4.74572713D-03 1.76298125D-01 5.77814747D-03
 ***** Axes restored to original set *****
 -------------------------------------------------------------------
 Center     Atomic                   Forces (Hartrees/Bohr)
 Number     Number              X              Y              Z
 -------------------------------------------------------------------
      1        6          -0.006462845    0.012726528    0.002996165
      2        6           0.023603929    0.012042379   -0.015100250
      3        8           0.006135301   -0.011427238    0.000650967
      4        6           0.009683770    0.016906664   -0.006322986
      5        6          -0.030634852   -0.026313931    0.017852996
      6        1           0.007505749    0.004529071   -0.008845162
      7        1           0.006658426   -0.019043389    0.002641712
      8        1          -0.005159755    0.005777067    0.005396224
      9        1          -0.011329723    0.004802849    0.000730335
 -------------------------------------------------------------------
 Cartesian Forces:  Max     0.030634852 RMS     0.012896894
 Leave Link  716 at Mon Mar 14 17:12:45 2016, MaxMem=    33554432 cpu:         0.0
 (Enter /opt/g09/g09/l103.exe)

 GradGradGradGradGradGradGradGradGradGradGradGradGradGradGradGradGradGrad
 Berny optimization.
 Using GEDIIS/GDIIS optimizer.
 FormGI is forming the generalized inverse of G from B-inverse, IUseBI=4.
 Internal  Forces:  Max     0.022498506 RMS     0.008010913
 Search for a local minimum.
 Step number   2 out of a maximum of   48
 All quantities printed in internal units (Hartrees-Bohrs-Radians)
 RMS Force = .80109D-02 SwitMx=.10000D-02 MixMth= 1
 Mixed Optimization -- RFO/linear search
 Update second derivatives using D2CorX and points    1    2
 DE= -3.00D-02 DEPred=-4.39D-02 R= 6.85D-01
 TightC=F SS=  1.41D+00  RLast= 3.19D-01 DXNew= 5.0454D-01 9.5709D-01
 Trust test= 6.85D-01 RLast= 3.19D-01 DXMaxT set to 5.05D-01
 ITU=  1  0
 Use linear search instead of GDIIS.
     Eigenvalues ---    0.02081   0.02354   0.02565   0.02772   0.02937
     Eigenvalues ---    0.02964   0.15143   0.15651   0.15960   0.15998
     Eigenvalues ---    0.22286   0.23502   0.29001   0.31625   0.37051
     Eigenvalues ---    0.39273   0.41031   0.47791   0.56005   0.64757
     Eigenvalues ---    0.98034
 RFO step:  Lambda=-8.39127280D-03 EMin= 2.08073246D-02
 Quartic linear search produced a step of -0.02994.
 Iteration  1 RMS(Cart)=  0.02982437 RMS(Int)=  0.00206911
 Iteration  2 RMS(Cart)=  0.00140822 RMS(Int)=  0.00137682
 Iteration  3 RMS(Cart)=  0.00000254 RMS(Int)=  0.00137682
 Iteration  4 RMS(Cart)=  0.00000001 RMS(Int)=  0.00137682
 ITry= 1 IFail=0 DXMaxC= 9.25D-02 DCOld= 1.00D+10 DXMaxT= 5.05D-01 DXLimC= 3.00D+00 Rises=F
 Variable       Old X    -DE/DX   Delta X   Delta X   Delta X     New X
                                 (Linear)    (Quad)   (Total)
    R1        2.61484  -0.02250  -0.00133  -0.03681  -0.03810   2.57674
    R2        2.76058  -0.02106  -0.00164  -0.04481  -0.04592   2.71466
    R3        2.05735  -0.01204   0.00160  -0.04127  -0.03967   2.01768
    R4        2.61260  -0.01370  -0.00454  -0.00266  -0.00770   2.60490
    R5        2.04029  -0.00341  -0.00045  -0.00705  -0.00750   2.03279
    R6        2.59045  -0.00410  -0.00392   0.00969   0.00542   2.59587
    R7        2.61095  -0.01836  -0.00262  -0.02006  -0.02242   2.58853
    R8        2.09167  -0.02012   0.00172  -0.06941  -0.06769   2.02398
    R9        2.00758   0.00733  -0.00117   0.02112   0.01994   2.02752
    A1        1.85815   0.00049   0.00082  -0.00917  -0.00712   1.85104
    A2        2.25719  -0.00291   0.00009  -0.01238  -0.01302   2.24417
    A3        2.16765   0.00244  -0.00092   0.02197   0.02033   2.18798
    A4        1.92486   0.00283  -0.00019   0.01196   0.01039   1.93525
    A5        2.26242   0.00666  -0.00060   0.04902   0.04671   2.30912
    A6        2.08321  -0.00887   0.00058  -0.04475  -0.04622   2.03699
    A7        1.85929  -0.00326  -0.00066  -0.00562  -0.00633   1.85296
    A8        1.95215  -0.00457   0.00285  -0.02714  -0.02361   1.92854
    A9        2.03273  -0.00037  -0.00150  -0.00153  -0.00338   2.02934
   A10        2.29617   0.00496  -0.00137   0.02873   0.02698   2.32315
   A11        1.82950   0.00458  -0.00287   0.03191   0.02748   1.85697
   A12        2.20034  -0.00254   0.00142  -0.00591  -0.00846   2.19188
   A13        2.21952  -0.00080   0.00098   0.00965   0.00690   2.22641
    D1        0.03268  -0.00112   0.00045  -0.03661  -0.03601  -0.00333
    D2        2.99929   0.00208  -0.00071   0.06883   0.07035   3.06964
    D3       -3.12992  -0.00008   0.00015  -0.01413  -0.01489   3.13837
    D4       -0.16331   0.00312  -0.00101   0.09132   0.09147  -0.07184
    D5       -0.01275   0.00025   0.00002   0.01248   0.01246  -0.00029
    D6        2.86715   0.00499  -0.00158   0.14977   0.14744   3.01458
    D7       -3.13469  -0.00065   0.00028  -0.00806  -0.00729   3.14120
    D8       -0.25479   0.00410  -0.00132   0.12923   0.12768  -0.12711
    D9       -0.03973   0.00168  -0.00068   0.04631   0.04536   0.00563
   D10       -3.02686  -0.00278   0.00050  -0.05679  -0.05230  -3.07917
   D11        0.03160  -0.00165   0.00081  -0.03918  -0.03740  -0.00579
   D12        3.11114  -0.00105   0.00056  -0.03730  -0.03644   3.07470
   D13       -0.01172   0.00082  -0.00050   0.01639   0.01553   0.00381
   D14       -2.88777  -0.00367   0.00101  -0.11985  -0.11998  -3.00775
   D15       -3.07904   0.00044  -0.00024   0.01608   0.01634  -3.06270
   D16        0.32809  -0.00404   0.00127  -0.12016  -0.11917   0.20891
         Item               Value     Threshold  Converged?
 Maximum Force            0.022499     0.000450     NO 
 RMS     Force            0.008011     0.000300     NO 
 Maximum Displacement     0.092494     0.001800     NO 
 RMS     Displacement     0.030408     0.001200     NO 
 Predicted change in Energy=-4.831545D-03
 Lowest energy point so far.  Saving SCF results.
 GradGradGradGradGradGradGradGradGradGradGradGradGradGradGradGradGradGrad

 Leave Link  103 at Mon Mar 14 17:12:45 2016, MaxMem=    33554432 cpu:         0.0
 (Enter /opt/g09/g09/l202.exe)
                          Input orientation:                          
 ---------------------------------------------------------------------
 Center     Atomic      Atomic             Coordinates (Angstroms)
 Number     Number       Type             X           Y           Z
 ---------------------------------------------------------------------
      1          6           0        0.942517   -0.740013   -0.037702
      2          6           0       -0.369063   -1.108471    0.019511
      3          8           0       -1.189257   -0.001237    0.057586
      4          6           0       -0.358384    1.091856    0.015388
      5          6           0        0.951926    0.696492   -0.040250
      6          1           0        1.825480    1.315263    0.031715
      7          1           0       -0.836416    2.049356   -0.027208
      8          1           0       -0.853665   -2.068201   -0.015368
      9          1           0        1.808365   -1.363689   -0.074269
 ---------------------------------------------------------------------
                    Distance matrix (angstroms):
                    1          2          3          4          5
     1  C    0.000000
     2  C    1.363553   0.000000
     3  O    2.258170   1.378454   0.000000
     4  C    2.247422   2.200357   1.373675   0.000000
     5  C    1.436538   2.237515   2.254121   1.369789   0.000000
     6  H    2.237991   3.269656   3.289754   2.195322   1.072918
     7  H    3.308367   3.192565   2.082456   1.071044   2.242449
     8  H    2.234021   1.075704   2.095300   3.198783   3.302166
     9  H    1.067709   2.194339   3.295361   3.276056   2.231365
                    6          7          8          9
     6  H    0.000000
     7  H    2.761894   0.000000
     8  H    4.316001   4.117611   0.000000
     9  H    2.681102   4.318097   2.754308   0.000000
 Stoichiometry    C4H4O
 Framework group  C1[X(C4H4O)]
 Deg. of freedom    21
 Full point group                 C1      NOp   1
 RotChk:  IX=0 Diff= 1.43D-01
 Largest Abelian subgroup         C1      NOp   1
 Largest concise Abelian subgroup C1      NOp   1
                         Standard orientation:                         
 ---------------------------------------------------------------------
 Center     Atomic      Atomic             Coordinates (Angstroms)
 Number     Number       Type             X           Y           Z
 ---------------------------------------------------------------------
      1          6           0        0.824109    0.877837   -0.005587
      2          6           0        1.053335   -0.466253    0.006806
      3          8           0       -0.133653   -1.167075    0.013330
      4          6           0       -1.133798   -0.225567   -0.002735
      5          6           0       -0.603528    1.037389   -0.011586
      6          1           0       -1.128211    1.967823    0.089179
      7          1           0       -2.135665   -0.599173   -0.064501
      8          1           0        1.957461   -1.047002   -0.042429
      9          1           0        1.534943    1.674515   -0.010283
 ---------------------------------------------------------------------
 Rotational constants (GHZ):      9.4315009      9.1190647      4.6378991
 Leave Link  202 at Mon Mar 14 17:12:45 2016, MaxMem=    33554432 cpu:         0.0
 (Enter /opt/g09/g09/l301.exe)

 Semi-emprical parameters in input format:
 Method=8 CoreType=1 PeptideFC=0.0114505045 RIJScale=0.5291772086
 ****
 H       
 PQN=1 NValence=1 F0ss=0.4575101502 ZetaOverlap=1.1880780000 U=-0.4188110042
 Beta=-0.2268825074 CoreKO=1.0589197790 KON=0,0,0,0.9729128786 KON=1,0,1,1.0589197790
 KON=0,1,1,1.0589197790 KON=2,1,1,1.0589197790 EISol=-0.4188110042 EHeat=0.0830298228
 Alpha=1.5252601686
 GCore=0.0085277107,1.4001425905,2.2676713595
 GCore=0.0003534810,1.4001425905,3.4015070392
 GCore=-0.0012733648,0.5600570362,3.9684248791
 ****
 C       
 PQN=2,2 NValence=4 F0ss=0.4494442496 F0sp=0.4215147623 F0pp=0.3768030831 F2pp=0.1898715146
 G1sp=0.2679025821
 ZetaOverlap=1.8086650000,1.6851160000
 U=-1.9120180828,-1.4557965594
 Beta=-0.5775444233,-0.2836784428 DDN=0,1,0.8236736000 DDN=1,1,0.7848722650
 CoreKO=1.1124284736 KON=0,0,0,1.0130417543 KON=1,0,1,0.8016545580 KON=0,1,1,1.1124284736
 KON=2,1,1,0.7783928119 EISol=-4.4398989268 EHeat=0.2723305520 Alpha=1.4014062429
 DipHyp=1.6472524267
 GCore=0.0007885612,1.4001425905,3.1470066108
 GCore=0.0030846292,1.4001425905,3.2670454744
 GCore=-0.0013931594,1.3423965362,3.8739385724
 GCore=-0.0000875022,1.4001425905,5.0077742521
 ****
 O       
 PQN=2,2 NValence=6 F0ss=0.5666745976 F0sp=0.5321302318 F0pp=0.5052463918 F2pp=0.2358081713
 G1sp=0.4343770262
 ZetaOverlap=3.1080320000,2.7008530850
 U=-3.5951865036,-2.8760896690
 Beta=-1.0757546603,-1.0387102641 DDN=0,1,0.5174116255 DDN=1,1,0.4852322000
 CoreKO=0.8822957477 KON=0,0,0,0.8822957477 KON=1,0,1,0.5019543089 KON=0,1,1,0.8822957477
 KON=2,1,1,0.5515584117 EISol=-11.6164441184 EHeat=0.0949133088 Alpha=2.3576807890
 DipHyp=1.0347637167
 GCore=0.0195117322,1.4001425905,1.6023328031
 GCore=0.0056550009,1.9601996266,2.9938713957
 ****
 
 Standard basis: VSTO-6G (5D, 7F)
 Ernie: Thresh=  0.10000D-02 Tol=  0.10000D-05 Strict=F.
  NNHCO=     0 NNPyr=     0 NCTC=     0               EPep=         0.000000000
    EC=        68.477548600  ECS=         1.794448204   EG=         0.332812593
   EHC=         0.000000000  EAt=       -31.051283842  AtH=         1.516354808
 EPDDG=         0.000000000  ECC=        70.604809397 EAtT=        32.567638650
 There are    24 symmetry adapted cartesian basis functions of A   symmetry.
 There are    24 symmetry adapted basis functions of A   symmetry.
    24 basis functions,   144 primitive gaussians,    24 cartesian basis functions
    13 alpha electrons       13 beta electrons
       nuclear repulsion energy       103.1724480476 Hartrees.
 IExCor=    0 DFT=F Ex=HF Corr=None ExCW=0 ScaHFX=  1.000000
 ScaDFX=  1.000000  1.000000  1.000000  1.000000 ScalE2=  1.000000  1.000000
 IRadAn=      0 IRanWt=     -1 IRanGd=            0 ICorTp=0 IEmpDi=  4
 Integral buffers will be    131072 words long.
 Regular integral format.
 Two-electron integral symmetry is turned off.
 Leave Link  301 at Mon Mar 14 17:12:45 2016, MaxMem=    33554432 cpu:         0.0
 (Enter /opt/g09/g09/l302.exe)
 Do NDO integrals.
 NPDir=0 NMtPBC=     1 NCelOv=     1 NCel=       1 NClECP=     1 NCelD=      1
         NCelK=      1 NCelE2=     1 NClLst=     1 CellRange=     0.0.
 One-electron integrals computed using PRISM.
 NBasis=    24 RedAO= F EigKep=  0.00D+00  NBF=    24
 NBsUse=    24 1.00D-04 EigRej=  0.00D+00 NBFU=    24
 Leave Link  302 at Mon Mar 14 17:12:45 2016, MaxMem=    33554432 cpu:         0.0
 (Enter /opt/g09/g09/l303.exe)
 DipDrv:  MaxL=1.
 Leave Link  303 at Mon Mar 14 17:12:45 2016, MaxMem=    33554432 cpu:         0.0
 (Enter /opt/g09/g09/l401.exe)
 Initial guess from the checkpoint file:  "/opt/g09/scratch/Gau-13224.chk"
 B after Tr=     0.000000    0.000000    0.000000
         Rot=    0.998835    0.000214    0.000020    0.048250 Ang=   5.53 deg.
 Guess basis will be translated and rotated to current coordinates.
 JPrj=0 DoOrth=T DoCkMO=T.
 Leave Link  401 at Mon Mar 14 17:12:45 2016, MaxMem=    33554432 cpu:         0.0
 (Enter /opt/g09/g09/l502.exe)
 Closed shell SCF:
 Using DIIS extrapolation, IDIIS=  1040.
 Overlap will be assumed to be unity.
 Two-electron integral symmetry not used.
 Keep J ints in memory in canonical form, NReq=888082.
 IVT=       79475 IEndB=       79475 NGot=    33554432 MDV=    33473473
 LenX=    33473473 LenY=    33472456
 Requested convergence on RMS density matrix=1.00D-08 within 128 cycles.
 Requested convergence on MAX density matrix=1.00D-06.
 Requested convergence on             energy=1.00D-06.
 No special actions if energy rises.
 FoFCou: FMM=F IPFlag=           0 FMFlag=           0 FMFlg1=           0
         NFxFlg=           0 DoJE=F BraDBF=F KetDBF=F FulRan=T
         wScrn=  0.000000 ICntrl=     600 IOpCl=  2 I1Cent=           0 NGrid=           0
         NMat0=    1 NMatS0=     54 NMatT0=    0 NMatD0=    1 NMtDS0=    0 NMtDT0=    0
 Symmetry not used in FoFCou.

 Cycle   1  Pass 1  IDiag  1:
 E= 0.980784840706548E-01
 DIIS: error= 4.32D-03 at cycle   1 NSaved=   1.
 NSaved= 1 IEnMin= 1 EnMin= 0.980784840706548E-01 IErMin= 1 ErrMin= 4.32D-03
 ErrMax= 4.32D-03  0.00D+00 EMaxC= 1.00D-01 BMatC= 6.28D-04 BMatP= 6.28D-04
 IDIUse=3 WtCom= 9.57D-01 WtEn= 4.32D-02
 Coeff-Com:  0.100D+01
 Coeff-En:   0.100D+01
 Coeff:      0.100D+01
 GapD=    2.000 DampG=2.000 DampE=1.000 DampFc=2.0000 IDamp=-1.
 RMSDP=1.86D-03 MaxDP=1.28D-02              OVMax= 0.00D+00

 Cycle   2  Pass 1  IDiag  3:
 E= 0.960331793230722E-01 Delta-E=       -0.002045304748 Rises=F Damp=F
 DIIS: error= 1.61D-03 at cycle   2 NSaved=   2.
 NSaved= 2 IEnMin= 2 EnMin= 0.960331793230722E-01 IErMin= 2 ErrMin= 1.61D-03
 ErrMax= 1.61D-03  0.00D+00 EMaxC= 1.00D-01 BMatC= 8.56D-05 BMatP= 6.28D-04
 IDIUse=3 WtCom= 9.84D-01 WtEn= 1.61D-02
 Coeff-Com: -0.467D+00 0.147D+01
 Coeff-En:   0.000D+00 0.100D+01
 Coeff:     -0.459D+00 0.146D+01
 Gap=     0.368 Goal=   None    Shift=    0.000
 RMSDP=1.23D-03 MaxDP=8.62D-03 DE=-2.05D-03 OVMax= 7.51D-03

 Cycle   3  Pass 1  IDiag  3:
 E= 0.955814599316653E-01 Delta-E=       -0.000451719391 Rises=F Damp=F
 DIIS: error= 3.52D-04 at cycle   3 NSaved=   3.
 NSaved= 3 IEnMin= 3 EnMin= 0.955814599316653E-01 IErMin= 3 ErrMin= 3.52D-04
 ErrMax= 3.52D-04  0.00D+00 EMaxC= 1.00D-01 BMatC= 5.22D-06 BMatP= 8.56D-05
 IDIUse=3 WtCom= 9.96D-01 WtEn= 3.52D-03
 Coeff-Com:  0.227D+00-0.853D+00 0.163D+01
 Coeff-En:   0.000D+00 0.000D+00 0.100D+01
 Coeff:      0.226D+00-0.850D+00 0.162D+01
 Gap=     0.368 Goal=   None    Shift=    0.000
 RMSDP=4.37D-04 MaxDP=2.58D-03 DE=-4.52D-04 OVMax= 3.03D-03

 Cycle   4  Pass 1  IDiag  3:
 E= 0.955432627506667E-01 Delta-E=       -0.000038197181 Rises=F Damp=F
 DIIS: error= 7.66D-05 at cycle   4 NSaved=   4.
 NSaved= 4 IEnMin= 4 EnMin= 0.955432627506667E-01 IErMin= 4 ErrMin= 7.66D-05
 ErrMax= 7.66D-05  0.00D+00 EMaxC= 1.00D-01 BMatC= 2.39D-07 BMatP= 5.22D-06
 IDIUse=1 WtCom= 1.00D+00 WtEn= 0.00D+00
 Coeff-Com: -0.321D-01 0.135D+00-0.404D+00 0.130D+01
 Coeff:     -0.321D-01 0.135D+00-0.404D+00 0.130D+01
 Gap=     0.368 Goal=   None    Shift=    0.000
 RMSDP=8.54D-05 MaxDP=3.47D-04 DE=-3.82D-05 OVMax= 7.31D-04

 Cycle   5  Pass 1  IDiag  3:
 E= 0.955415421887409E-01 Delta-E=       -0.000001720562 Rises=F Damp=F
 DIIS: error= 2.58D-05 at cycle   5 NSaved=   5.
 NSaved= 5 IEnMin= 5 EnMin= 0.955415421887409E-01 IErMin= 5 ErrMin= 2.58D-05
 ErrMax= 2.58D-05  0.00D+00 EMaxC= 1.00D-01 BMatC= 2.63D-08 BMatP= 2.39D-07
 IDIUse=1 WtCom= 1.00D+00 WtEn= 0.00D+00
 Coeff-Com: -0.126D-01 0.438D-01-0.381D-01-0.433D+00 0.144D+01
 Coeff:     -0.126D-01 0.438D-01-0.381D-01-0.433D+00 0.144D+01
 Gap=     0.368 Goal=   None    Shift=    0.000
 RMSDP=3.29D-05 MaxDP=1.43D-04 DE=-1.72D-06 OVMax= 2.62D-04

 Cycle   6  Pass 1  IDiag  3:
 E= 0.955413399133960E-01 Delta-E=       -0.000000202275 Rises=F Damp=F
 DIIS: error= 5.31D-06 at cycle   6 NSaved=   6.
 NSaved= 6 IEnMin= 6 EnMin= 0.955413399133960E-01 IErMin= 6 ErrMin= 5.31D-06
 ErrMax= 5.31D-06  0.00D+00 EMaxC= 1.00D-01 BMatC= 1.40D-09 BMatP= 2.63D-08
 IDIUse=1 WtCom= 1.00D+00 WtEn= 0.00D+00
 Coeff-Com:  0.781D-02-0.283D-01 0.386D-01 0.157D+00-0.749D+00 0.157D+01
 Coeff:      0.781D-02-0.283D-01 0.386D-01 0.157D+00-0.749D+00 0.157D+01
 Gap=     0.368 Goal=   None    Shift=    0.000
 RMSDP=7.53D-06 MaxDP=3.58D-05 DE=-2.02D-07 OVMax= 7.21D-05

 Cycle   7  Pass 1  IDiag  3:
 E= 0.955413296664887E-01 Delta-E=       -0.000000010247 Rises=F Damp=F
 DIIS: error= 1.06D-06 at cycle   7 NSaved=   7.
 NSaved= 7 IEnMin= 7 EnMin= 0.955413296664887E-01 IErMin= 7 ErrMin= 1.06D-06
 ErrMax= 1.06D-06  0.00D+00 EMaxC= 1.00D-01 BMatC= 6.63D-11 BMatP= 1.40D-09
 IDIUse=1 WtCom= 1.00D+00 WtEn= 0.00D+00
 Coeff-Com: -0.462D-02 0.168D-01-0.235D-01-0.868D-01 0.434D+00-0.101D+01
 Coeff-Com:  0.167D+01
 Coeff:     -0.462D-02 0.168D-01-0.235D-01-0.868D-01 0.434D+00-0.101D+01
 Coeff:      0.167D+01
 Gap=     0.368 Goal=   None    Shift=    0.000
 RMSDP=1.61D-06 MaxDP=1.05D-05 DE=-1.02D-08 OVMax= 1.40D-05

 Cycle   8  Pass 1  IDiag  3:
 E= 0.955413291472240E-01 Delta-E=       -0.000000000519 Rises=F Damp=F
 DIIS: error= 3.19D-07 at cycle   8 NSaved=   8.
 NSaved= 8 IEnMin= 8 EnMin= 0.955413291472240E-01 IErMin= 8 ErrMin= 3.19D-07
 ErrMax= 3.19D-07  0.00D+00 EMaxC= 1.00D-01 BMatC= 4.68D-12 BMatP= 6.63D-11
 IDIUse=1 WtCom= 1.00D+00 WtEn= 0.00D+00
 Coeff-Com:  0.202D-02-0.732D-02 0.102D-01 0.397D-01-0.196D+00 0.461D+00
 Coeff-Com: -0.944D+00 0.163D+01
 Coeff:      0.202D-02-0.732D-02 0.102D-01 0.397D-01-0.196D+00 0.461D+00
 Coeff:     -0.944D+00 0.163D+01
 Gap=     0.368 Goal=   None    Shift=    0.000
 RMSDP=4.73D-07 MaxDP=3.40D-06 DE=-5.19D-10 OVMax= 4.12D-06

 Cycle   9  Pass 1  IDiag  3:
 E= 0.955413291090821E-01 Delta-E=       -0.000000000038 Rises=F Damp=F
 DIIS: error= 6.85D-08 at cycle   9 NSaved=   9.
 NSaved= 9 IEnMin= 9 EnMin= 0.955413291090821E-01 IErMin= 9 ErrMin= 6.85D-08
 ErrMax= 6.85D-08  0.00D+00 EMaxC= 1.00D-01 BMatC= 2.34D-13 BMatP= 4.68D-12
 IDIUse=1 WtCom= 1.00D+00 WtEn= 0.00D+00
 Coeff-Com: -0.756D-03 0.274D-02-0.374D-02-0.156D-01 0.760D-01-0.177D+00
 Coeff-Com:  0.377D+00-0.799D+00 0.154D+01
 Coeff:     -0.756D-03 0.274D-02-0.374D-02-0.156D-01 0.760D-01-0.177D+00
 Coeff:      0.377D+00-0.799D+00 0.154D+01
 Gap=     0.368 Goal=   None    Shift=    0.000
 RMSDP=9.43D-08 MaxDP=6.49D-07 DE=-3.81D-11 OVMax= 7.94D-07

 Cycle  10  Pass 1  IDiag  3:
 E= 0.955413291073484E-01 Delta-E=       -0.000000000002 Rises=F Damp=F
 DIIS: error= 1.28D-08 at cycle  10 NSaved=  10.
 NSaved=10 IEnMin=10 EnMin= 0.955413291073484E-01 IErMin=10 ErrMin= 1.28D-08
 ErrMax= 1.28D-08  0.00D+00 EMaxC= 1.00D-01 BMatC= 1.39D-14 BMatP= 2.34D-13
 IDIUse=1 WtCom= 1.00D+00 WtEn= 0.00D+00
 Coeff-Com:  0.169D-03-0.607D-03 0.796D-03 0.391D-02-0.183D-01 0.420D-01
 Coeff-Com: -0.898D-01 0.207D+00-0.598D+00 0.145D+01
 Coeff:      0.169D-03-0.607D-03 0.796D-03 0.391D-02-0.183D-01 0.420D-01
 Coeff:     -0.898D-01 0.207D+00-0.598D+00 0.145D+01
 Gap=     0.368 Goal=   None    Shift=    0.000
 RMSDP=2.29D-08 MaxDP=1.32D-07 DE=-1.73D-12 OVMax= 1.86D-07

 Cycle  11  Pass 1  IDiag  3:
 E= 0.955413291074763E-01 Delta-E=        0.000000000000 Rises=F Damp=F
 DIIS: error= 2.83D-09 at cycle  11 NSaved=  11.
 NSaved=11 IEnMin=10 EnMin= 0.955413291073484E-01 IErMin=11 ErrMin= 2.83D-09
 ErrMax= 2.83D-09  0.00D+00 EMaxC= 1.00D-01 BMatC= 7.97D-16 BMatP= 1.39D-14
 IDIUse=1 WtCom= 1.00D+00 WtEn= 0.00D+00
 Coeff-Com: -0.344D-04 0.123D-03-0.149D-03-0.951D-03 0.425D-02-0.949D-02
 Coeff-Com:  0.203D-01-0.512D-01 0.192D+00-0.677D+00 0.152D+01
 Coeff:     -0.344D-04 0.123D-03-0.149D-03-0.951D-03 0.425D-02-0.949D-02
 Coeff:      0.203D-01-0.512D-01 0.192D+00-0.677D+00 0.152D+01
 Gap=     0.368 Goal=   None    Shift=    0.000
 RMSDP=5.64D-09 MaxDP=2.70D-08 DE= 1.28D-13 OVMax= 3.86D-08

 Cycle  12  Pass 2  IDiag  1:
 SCF Done:  E(RAM1) =  0.955413291075E-01 A.U. after   12 cycles
            NFock= 11  Conv=0.56D-08     -V/T= 1.0059
 KE=-1.630729920288D+01 PE=-1.710436191785D+02 EE= 8.427401166287D+01
 Leave Link  502 at Mon Mar 14 17:12:45 2016, MaxMem=    33554432 cpu:         0.0
 (Enter /opt/g09/g09/l701.exe)
 Compute integral first derivatives.
 ... and contract with generalized density number  0.
 Leave Link  701 at Mon Mar 14 17:12:45 2016, MaxMem=    33554432 cpu:         0.0
 (Enter /opt/g09/g09/l702.exe)
 L702 exits ... SP integral derivatives will be done elsewhere.
 Leave Link  702 at Mon Mar 14 17:12:45 2016, MaxMem=    33554432 cpu:         0.0
 (Enter /opt/g09/g09/l703.exe)
 Compute integral first derivatives, UseDBF=F ICtDFT=           0.
 Integral derivatives from FoFJK, PRISM(SPDF).
 Calling FoFJK, ICntrl=      2127 FMM=F ISym2X=0 I1Cent= 0 IOpClX= 0 NMat=1 NMatS=1 NMatT=0.
 FoFJK:  IHMeth= 8 ICntrl=    2127 DoSepK=F KAlg= 0 I1Cent=   0 FoldK=F
 IRaf=         0 NMat=   1 IRICut=       1 DoRegI=T DoRafI=F ISym2E= 0.
 FoFCou: FMM=F IPFlag=           0 FMFlag=      100000 FMFlg1=         800
         NFxFlg=           0 DoJE=F BraDBF=F KetDBF=F FulRan=T
         wScrn=  0.000000 ICntrl=    2127 IOpCl=  0 I1Cent=           0 NGrid=           0
         NMat0=    1 NMatS0=      1 NMatT0=    0 NMatD0=    1 NMtDS0=    0 NMtDT0=    0
 Symmetry not used in FoFCou.
 Leave Link  703 at Mon Mar 14 17:12:45 2016, MaxMem=    33554432 cpu:         0.0
 (Enter /opt/g09/g09/l716.exe)
 Dipole        = 2.27848477D-02 1.81423116D-01-1.13969572D-02
 ***** Axes restored to original set *****
 -------------------------------------------------------------------
 Center     Atomic                   Forces (Hartrees/Bohr)
 Number     Number              X              Y              Z
 -------------------------------------------------------------------
      1        6           0.002372245    0.004791544    0.000038588
      2        6          -0.005476665   -0.002302977   -0.003596000
      3        8          -0.001759368   -0.005337138   -0.001569531
      4        6           0.005047256   -0.001792574   -0.003522914
      5        6           0.001200870    0.003228627    0.008945021
      6        1           0.001036999    0.001139490   -0.005002249
      7        1          -0.002921278    0.004280828    0.002319714
      8        1          -0.002944190   -0.000282940    0.002486669
      9        1           0.003444130   -0.003724859   -0.000099298
 -------------------------------------------------------------------
 Cartesian Forces:  Max     0.008945021 RMS     0.003570217
 Leave Link  716 at Mon Mar 14 17:12:45 2016, MaxMem=    33554432 cpu:         0.0
 (Enter /opt/g09/g09/l103.exe)

 GradGradGradGradGradGradGradGradGradGradGradGradGradGradGradGradGradGrad
 Berny optimization.
 Using GEDIIS/GDIIS optimizer.
 FormGI is forming the generalized inverse of G from B-inverse, IUseBI=4.
 Internal  Forces:  Max     0.007687590 RMS     0.002334580
 Search for a local minimum.
 Step number   3 out of a maximum of   48
 All quantities printed in internal units (Hartrees-Bohrs-Radians)
 RMS Force = .23346D-02 SwitMx=.10000D-02 MixMth= 1
 Mixed Optimization -- RFO/linear search
 Update second derivatives using D2CorX and points    1    2    3
 DE= -4.61D-03 DEPred=-4.83D-03 R= 9.54D-01
 TightC=F SS=  1.41D+00  RLast= 3.28D-01 DXNew= 8.4853D-01 9.8472D-01
 Trust test= 9.54D-01 RLast= 3.28D-01 DXMaxT set to 8.49D-01
 ITU=  1  1  0
 Use linear search instead of GDIIS.
     Eigenvalues ---    0.01951   0.02252   0.02376   0.02664   0.02934
     Eigenvalues ---    0.02991   0.14655   0.15800   0.15972   0.16007
     Eigenvalues ---    0.22641   0.24032   0.30649   0.34231   0.37075
     Eigenvalues ---    0.40294   0.41125   0.49506   0.57661   0.65550
     Eigenvalues ---    0.98544
 RFO step:  Lambda=-1.44353787D-03 EMin= 1.95142164D-02
 Quartic linear search produced a step of  0.06057.
 Iteration  1 RMS(Cart)=  0.01928851 RMS(Int)=  0.00085715
 Iteration  2 RMS(Cart)=  0.00055138 RMS(Int)=  0.00061179
 Iteration  3 RMS(Cart)=  0.00000024 RMS(Int)=  0.00061179
 ITry= 1 IFail=0 DXMaxC= 6.23D-02 DCOld= 1.00D+10 DXMaxT= 8.49D-01 DXLimC= 3.00D+00 Rises=F
 Variable       Old X    -DE/DX   Delta X   Delta X   Delta X     New X
                                 (Linear)    (Quad)   (Total)
[...]
                                                                         X                                       X                   
                                                                         X                                       X                   
                                                                         X                                       X                   
                                                                         X                                       X                   
                                                                         X                                       X                   
                                                                         X                                       X                   
                                                                         X                                       X                   
                                                                         X                                       X                   
                                                                         X                                       X                   
                                                                         X                                       X                   
 
 ***** Axes restored to original set *****
 -------------------------------------------------------------------
 Center     Atomic                   Forces (Hartrees/Bohr)
 Number     Number              X              Y              Z
 -------------------------------------------------------------------
      1        6           0.148599657    0.003992445   -0.006412637
      2        6           0.014247156   -0.130981712   -0.009027925
      3        8          -0.187971935   -0.001770692    0.010811458
      4        6          -0.044501513    0.210115508   -0.006780915
      5        6           0.067066449   -0.075646545    0.011366799
      6        1           0.022347781    0.014148940   -0.007284924
      7        1           0.013479423   -0.024585198    0.001903611
      8        1          -0.008302911   -0.006778837    0.004817195
      9        1          -0.024964107    0.011506091    0.000607337
 -------------------------------------------------------------------
 Cartesian Forces:  Max     0.210115508 RMS     0.070446720
 Z-matrix is all fixed cartesians, so copy forces.
 Force constants in Cartesian coordinates: 
                1             2             3             4             5 
      1  0.982031D+00
      2 -0.908464D-01  0.678372D+00
      3 -0.616817D-01 -0.326038D-02  0.110528D+00
      4 -0.472104D+00 -0.986063D-01  0.488648D-01  0.865941D+00
      5 -0.157843D+00 -0.964974D-01  0.128703D-01 -0.140971D-01  0.110634D+01
      6  0.337776D-01  0.101988D-01 -0.554255D-01 -0.247121D-01 -0.126905D-01
      7 -0.168559D+00  0.713865D-01  0.575895D-02 -0.340117D+00  0.424697D+00
      8  0.102313D+00  0.103648D-01  0.167890D-02  0.225505D+00 -0.431248D+00
      9  0.105275D-01 -0.312667D-02  0.126636D-01 -0.197229D-02  0.727488D-02
     10 -0.102149D+00  0.732552D-01  0.231769D-02  0.199676D+00 -0.823064D-01
     11  0.809856D-01 -0.827681D-01 -0.778154D-02  0.582373D-01 -0.229116D+00
     12  0.234578D-02 -0.700808D-02  0.316763D-01 -0.192155D-02  0.442629D-02
     13 -0.172933D-01 -0.293810D-01 -0.743475D-03 -0.118330D+00 -0.640097D-01
     14 -0.609769D-02 -0.347747D+00  0.487531D-02 -0.388233D-01 -0.695723D-01
     15 -0.526755D-02  0.327182D-02 -0.756197D-01  0.608202D-02  0.129020D-01
     16  0.174888D-02 -0.531506D-02 -0.841453D-03 -0.901910D-03  0.335041D-02
     17 -0.261255D-01 -0.272981D-01 -0.288413D-02 -0.141631D-02 -0.285792D-02
     18  0.292028D-02  0.280357D-02  0.673755D-02 -0.347877D-02 -0.978610D-03
     19 -0.325895D-02  0.116122D-02 -0.948428D-05 -0.460582D-02 -0.338026D-02
     20 -0.111117D-02  0.651722D-03 -0.123981D-03 -0.622436D-02  0.424196D-03
     21  0.184480D-02  0.497978D-03  0.928726D-03 -0.344786D-02 -0.890208D-03
     22 -0.202894D-01 -0.298708D-01 -0.388746D-03 -0.986332D-01 -0.120767D+00
     23 -0.125072D-01 -0.765413D-02 -0.750568D-03 -0.119350D+00 -0.285126D+00
     24  0.784658D-02  0.222582D-02  0.188775D-01 -0.195974D-01 -0.221996D-01
     25 -0.200126D+00  0.108217D+00  0.672347D-02 -0.309250D-01  0.143566D-01
     26  0.111232D+00 -0.127423D+00 -0.462377D-02 -0.522349D-02  0.765358D-02
     27  0.768660D-02 -0.560288D-02 -0.503660D-01  0.183443D-03 -0.714648D-03
                6             7             8             9            10 
      6  0.462450D-01
      7 -0.753145D-02  0.101811D+01
      8  0.124200D-01 -0.799181D-02  0.884332D+00
      9  0.193628D-01 -0.437813D-01 -0.338766D-01 -0.959030D-01
     10 -0.111302D-01 -0.402682D+00 -0.215179D+00  0.256408D-01  0.992811D+00
     11  0.492917D-02 -0.428862D+00 -0.363046D+00  0.228285D-01  0.555383D-01
     12 -0.134474D-01  0.253275D-01  0.241441D-01  0.185430D-01 -0.545960D-01
     13  0.159523D-01 -0.129192D+00 -0.104711D+00  0.921536D-02 -0.544270D+00
     14  0.193277D-02 -0.574233D-01  0.313470D-01  0.612701D-02  0.727243D-01
     15  0.224244D-01  0.803766D-02 -0.712627D-02  0.467681D-02  0.379647D-01
     16 -0.734108D-03 -0.383906D-02 -0.278595D-02 -0.579158D-04 -0.390779D-01
     17 -0.387095D-03  0.382010D-02 -0.194205D-02 -0.807917D-03  0.417250D-02
     18  0.630772D-02  0.123478D-02  0.110730D-02  0.356557D-02  0.311256D-02
     19  0.785015D-04  0.143532D-01 -0.187661D-01  0.821255D-03 -0.984692D-01
     20 -0.155764D-03  0.202750D-02 -0.668217D-01  0.242264D-02  0.836990D-01
     21  0.258635D-02  0.347715D-02  0.487379D-02  0.187369D-01 -0.597019D-02
     22 -0.800459D-02  0.151247D-01  0.184913D-01 -0.852086D-03 -0.429486D-02
     23 -0.167168D-01 -0.364486D-02 -0.609385D-01 -0.964525D-03  0.603001D-02
     24 -0.351659D-01  0.604318D-02 -0.191914D-02  0.154928D-01  0.935174D-03
     25  0.230427D-02 -0.320359D-02  0.312359D-02  0.458165D-03 -0.154397D-02
     26  0.469448D-03 -0.400910D-02 -0.204547D-02  0.122580D-03  0.206566D-02
     27  0.711308D-02  0.143304D-02 -0.130185D-02  0.286099D-02  0.172563D-02
               11            12            13            14            15 
     11  0.956810D+00
     12 -0.177091D-01  0.389010D-01
     13  0.166480D+00  0.335358D-01  0.109160D+01
     14 -0.880688D-01 -0.610084D-02  0.170755D+00  0.667064D+00
     15 -0.580945D-02 -0.422046D-01  0.468666D-03  0.330271D-01  0.994341D-01
     16 -0.167328D-01 -0.247839D-02 -0.261830D+00 -0.173477D+00 -0.476756D-01
     17  0.943029D-02 -0.328112D-03 -0.175172D+00 -0.159542D+00 -0.354587D-01
     18 -0.168993D-02  0.697393D-02 -0.554590D-01 -0.407341D-01 -0.372631D-01
     19  0.836027D-01 -0.231396D-02 -0.186992D-01  0.279034D-01  0.570513D-03
     20 -0.199672D+00  0.238029D-02  0.114550D-01 -0.647543D-02  0.245076D-03
     21  0.427203D-02 -0.506024D-01  0.245575D-02 -0.174824D-02  0.189766D-01
     22  0.354546D-02 -0.161200D-03 -0.282862D-02 -0.874816D-03 -0.755060D-03
     23 -0.575989D-03 -0.431148D-04  0.586089D-03  0.111808D-02 -0.639195D-05
     24  0.451066D-03  0.402162D-02 -0.398797D-02  0.279483D-03  0.426626D-03
     25 -0.279356D-02  0.261967D-03  0.842201D-03  0.531291D-02  0.574480D-03
     26 -0.299449D-02  0.238466D-03  0.239972D-01 -0.281226D-01 -0.104506D-02
     27  0.509218D-03  0.613845D-02 -0.143738D-02  0.234148D-02  0.914930D-02
               16            17            18            19            20 
     16  0.303594D+00
     17  0.195190D+00  0.182267D+00
     18  0.513002D-01  0.392128D-01  0.194360D-01
     19 -0.671756D-04 -0.886416D-05  0.101866D-03  0.109767D+00
     20  0.133027D-03  0.133631D-04  0.278902D-03 -0.906562D-01  0.272714D+00
     21  0.246791D-03 -0.852518D-05 -0.151698D-02  0.587223D-03 -0.586965D-02
     22  0.682850D-04 -0.642938D-03  0.448254D-03  0.894575D-03  0.486280D-03
     23 -0.193833D-03 -0.120437D-03 -0.532125D-04 -0.509178D-03 -0.687445D-03
     24  0.169335D-03  0.485241D-03 -0.303535D-02  0.168295D-03  0.747802D-03
     25  0.304509D-03  0.182902D-03 -0.180079D-03  0.853042D-04  0.190709D-03
     26 -0.169051D-03  0.502201D-04  0.532498D-04  0.653283D-03 -0.147407D-03
     27  0.711644D-04  0.176484D-03 -0.120539D-02 -0.421151D-05  0.747202D-04
               21            22            23            24            25 
     21  0.198578D-01
     22  0.891733D-03  0.110027D+00
     23 -0.112866D-02  0.129679D+00  0.353923D+00
     24 -0.562903D-02  0.854621D-02  0.199601D-01  0.664034D-02
     25 -0.852865D-04 -0.688325D-04 -0.893485D-04 -0.123299D-03  0.234635D+00
     26  0.142949D-05 -0.458154D-04  0.609329D-04 -0.307771D-04 -0.128501D+00
     27 -0.333804D-02  0.275468D-03 -0.296920D-03 -0.162871D-02 -0.993371D-02
               26            27 
     26  0.152968D+00
     27  0.481442D-02  0.312762D-01
 Leave Link  716 at Mon Mar 14 17:12:46 2016, MaxMem=    33554432 cpu:         0.0
 (Enter /opt/g09/g09/l103.exe)

 GradGradGradGradGradGradGradGradGradGradGradGradGradGradGradGradGradGrad
 Berny optimization.
 Search for a local minimum.
 Step number   1 out of a maximum of    2
 All quantities printed in internal units (Hartrees-Bohrs-Radians)
 Second derivative matrix not updated -- analytic derivatives used.
 ITU=  0
     Eigenvalues ---   -0.09061  -0.00085   0.02499   0.04469   0.05249
     Eigenvalues ---    0.05975   0.07758   0.08572   0.16463   0.17988
     Eigenvalues ---    0.21904   0.22784   0.35611   0.46286   0.71692
     Eigenvalues ---    0.89023   1.09045   1.36118   1.50048   1.78980
     Eigenvalues ---    2.00181
 Eigenvalue     1 is  -9.06D-02 should be greater than     0.000000 Eigenvector:
                          Z3        Z7        Z4        Z8        Z2
   1                    0.65711  -0.38302  -0.37018  -0.35678  -0.33093
                          Z6        Z9        Z5        Z1        X3
   1                    0.14730   0.11136   0.08228   0.05460   0.03123
 Eigenvalue     2 is  -8.50D-04 should be greater than     0.000000 Eigenvector:
                          Z6        Z8        Z9        Z1        Z7
   1                    0.67292   0.54656  -0.34225  -0.24469  -0.19868
                          Z4        Y6        Z5        X6        X2
   1                   -0.14475  -0.07006   0.04388  -0.04144   0.02540
 Quadratic step=4.116D+00 exceeds max=3.000D-01 adjusted using Lamda=-1.030D-01.
 Angle between NR and scaled steps=  76.74 degrees.
 Angle between quadratic step and forces=  38.30 degrees.
 Linear search not attempted -- first point.
 TrRot= -0.004096 -0.000088  0.002624  0.754131 -0.005546 -0.752606
 Variable       Old X    -DE/DX   Delta X   Delta X   Delta X     New X
                                 (Linear)    (Quad)   (Total)
    X1        1.70476   0.14860   0.00000   0.11632   0.11462   1.81938
    Y1       -1.35330   0.00399   0.00000   0.00728   0.01030  -1.34300
    Z1       -0.10205  -0.00641   0.00000   0.01394   0.01884  -0.08322
    X2       -0.76850   0.01425   0.00000   0.03412   0.03303  -0.73547
    Y2       -2.01455  -0.13098   0.00000  -0.05295  -0.05429  -2.06883
    Z2        0.12720  -0.00903   0.00000  -0.08616  -0.09434   0.03285
    X3       -2.18144  -0.18797   0.00000  -0.09425  -0.09887  -2.28031
    Y3        0.00009  -0.00177   0.00000  -0.00062  -0.00468  -0.00459
    Z3        0.09867   0.01081   0.00000   0.03665   0.03005   0.12872
    X4       -0.61162  -0.04450   0.00000  -0.07005  -0.07714  -0.68876
    Y4        1.89120   0.21012   0.00000   0.13591   0.13487   2.02607
    Z4        0.00359  -0.00678   0.00000  -0.02987  -0.02232  -0.01873
    X5        1.84643   0.06707   0.00000   0.02039   0.01468   1.86111
    Y5        1.34796  -0.07565   0.00000  -0.08392  -0.08087   1.26709
    Z5       -0.16949   0.01137   0.00000   0.08648   0.10146  -0.06803
    X6        3.39940   0.02235   0.00000   0.04820   0.03990   3.43930
    Y6        2.50980   0.01415   0.00000   0.01189   0.01673   2.52653
    Z6        0.16629  -0.00728   0.00000  -0.09123  -0.06509   0.10121
    X7       -1.57847   0.01348   0.00000   0.01408   0.00437  -1.57410
    Y7        3.80973  -0.02459   0.00000   0.02563   0.02337   3.83311
    Z7       -0.05555   0.00190   0.00000  -0.00688   0.00395  -0.05159
    X8       -1.60065  -0.00830   0.00000  -0.02480  -0.02299  -1.62364
    Y8       -3.85465  -0.00678   0.00000  -0.03229  -0.03487  -3.88952
    Z8       -0.02582   0.00482   0.00000   0.04222   0.02353  -0.00229
    X9        3.42122  -0.02496   0.00000  -0.00819  -0.00761   3.41360
    Y9       -2.57939   0.01151   0.00000  -0.01636  -0.01057  -2.58996
    Z9       -0.17625   0.00061   0.00000  -0.00268   0.00392  -0.17233
         Item               Value     Threshold  Converged?
 Maximum Force            0.210116     0.000450     NO 
 RMS     Force            0.070447     0.000300     NO 
 Maximum Displacement     0.134871     0.001800     NO 
 RMS     Displacement     0.057122     0.001200     NO 
 Predicted change in Energy=-4.795390D-02
 GradGradGradGradGradGradGradGradGradGradGradGradGradGradGradGradGradGrad

 Leave Link  103 at Mon Mar 14 17:12:46 2016, MaxMem=    33554432 cpu:         0.0
 (Enter /opt/g09/g09/l9999.exe)
 1\1\GINC-LINUX-CBNE\Freq\RAM1-Full\STO-3G\C4H4O1\DUSTIN\14-Mar-2016\0\
 \#P AM1(Input,Print) CIS(Singlets,NStates=2) pop(full) freq\\best1\\0,
 1\C,0.902119,-0.716134,-0.054005\C,-0.406673,-1.066053,0.067311\O,-1.1
 54368,0.000048,0.052214\C,-0.323656,1.000781,0.001898\C,0.977087,0.713
 31,-0.089691\H,1.798884,1.328128,0.087999\H,-0.835292,2.016024,-0.0293
 94\H,-0.847028,-2.039795,-0.013663\H,1.810431,-1.364952,-0.093267\\Ver
 sion=ES64L-G09RevD.01\State=1-A\HF=0.1301902\RMSD=5.343e-09\RMSF=7.045
 e-02\ZeroPoint=0.0715563\Thermal=0.0749726\Dipole=0.1771027,-0.0870285
 ,-0.0292492\DipoleDeriv=-0.1341565,0.2643411,-0.1965135,0.0105181,-0.3
 274289,-0.0734064,0.0074151,-0.0275218,-0.2299702,0.2489794,0.7593518,
 0.1786614,-0.246069,-1.0921241,0.0652026,0.0148606,0.1276955,-0.341153
 ,-0.6524068,0.1915184,-0.1043527,0.1040156,1.8952507,-0.0946523,0.0185
 78,0.0173972,-0.1451458,0.2566732,-0.9667456,-0.0268955,0.1196431,-0.9
 266522,0.0224462,-0.0177241,-0.0673217,-0.3556892,-0.2535177,-0.267277
 6,0.1281227,-0.0203283,-0.4913799,0.0669284,0.0815962,0.2411711,-0.274
 0137,0.1777983,0.1261177,0.0137014,0.0673137,0.1808103,-0.0067925,-0.0
 410194,-0.1102481,0.2522636,0.0959117,-0.092441,0.0072987,-0.066212,0.
 304857,-0.0330479,-0.0217938,-0.0285937,0.4221119,0.1042391,0.1047189,
 -0.0078446,0.078135,0.3050318,0.0502732,-0.0347158,-0.1439661,0.437846
 5,0.1564793,-0.1195662,0.0078188,-0.0470164,0.1516146,0.0030506,-0.007
 1977,-0.0086121,0.2337487\Polar=41.1623155,1.2236959,88.5555921,-2.558
 7914,-5.3682107,18.6774813\PG=C01 [X(C4H4O1)]\NImag=2\\0.98203064,-0.0
 9084639,0.67837163,-0.06168168,-0.00326038,0.11052759,-0.47210375,-0.0
 9860626,0.04886484,0.86594074,-0.15784291,-0.09649744,0.01287032,-0.01
 409709,1.10633932,0.03377761,0.01019882,-0.05542551,-0.02471209,-0.012
 69047,0.04624497,-0.16855946,0.07138651,0.00575895,-0.34011709,0.42469
 715,-0.00753145,1.01811408,0.10231329,0.01036482,0.00167890,0.22550497
 ,-0.43124819,0.01242000,-0.00799181,0.88433158,0.01052755,-0.00312667,
 0.01266363,-0.00197229,0.00727488,0.01936280,-0.04378125,-0.03387664,-
 0.09590304,-0.10214895,0.07325515,0.00231769,0.19967621,-0.08230645,-0
 .01113023,-0.40268174,-0.21517931,0.02564082,0.99281107,0.08098557,-0.
 08276812,-0.00778154,0.05823725,-0.22911597,0.00492917,-0.42886219,-0.
 36304603,0.02282849,0.05553835,0.95681000,0.00234578,-0.00700808,0.031
 67631,-0.00192155,0.00442629,-0.01344737,0.02532755,0.02414405,0.01854
 298,-0.05459599,-0.01770912,0.03890098,-0.01729329,-0.02938101,-0.0007
 4347,-0.11833015,-0.06400973,0.01595226,-0.12919151,-0.10471098,0.0092
 1536,-0.54426973,0.16647989,0.03353576,1.09160011,-0.00609769,-0.34774
 731,0.00487531,-0.03882334,-0.06957228,0.00193277,-0.05742334,0.031347
 00,0.00612701,0.07272431,-0.08806879,-0.00610084,0.17075527,0.66706382
 ,-0.00526755,0.00327182,-0.07561975,0.00608202,0.01290202,0.02242440,0
 .00803766,-0.00712627,0.00467681,0.03796475,-0.00580945,-0.04220456,0.
 00046867,0.03302709,0.09943408,0.00174888,-0.00531506,-0.00084145,-0.0
 0090191,0.00335041,-0.00073411,-0.00383906,-0.00278595,-0.00005792,-0.
 03907791,-0.01673275,-0.00247839,-0.26182984,-0.17347662,-0.04767560,0
 .30359414,-0.02612545,-0.02729809,-0.00288413,-0.00141631,-0.00285792,
 -0.00038710,0.00382010,-0.00194205,-0.00080792,0.00417250,0.00943029,-
 0.00032811,-0.17517186,-0.15954246,-0.03545868,0.19518997,0.18226703,0
 .00292028,0.00280357,0.00673755,-0.00347877,-0.00097861,0.00630772,0.0
 0123478,0.00110730,0.00356557,0.00311256,-0.00168993,0.00697393,-0.055
 45902,-0.04073410,-0.03726311,0.05130020,0.03921277,0.01943596,-0.0032
 5895,0.00116122,-0.00000948,-0.00460582,-0.00338026,0.00007850,0.01435
 320,-0.01876609,0.00082125,-0.09846918,0.08360266,-0.00231396,-0.01869
 918,0.02790343,0.00057051,-0.00006718,-0.00000886,0.00010187,0.1097671
 3,-0.00111117,0.00065172,-0.00012398,-0.00622436,0.00042420,-0.0001557
 6,0.00202750,-0.06682174,0.00242264,0.08369903,-0.19967162,0.00238029,
 0.01145502,-0.00647543,0.00024508,0.00013303,0.00001336,0.00027890,-0.
 09065616,0.27271444,0.00184480,0.00049798,0.00092873,-0.00344786,-0.00
 089021,0.00258635,0.00347715,0.00487379,0.01873694,-0.00597019,0.00427
 203,-0.05060241,0.00245575,-0.00174824,0.01897662,0.00024679,-0.000008
 53,-0.00151698,0.00058722,-0.00586965,0.01985778,-0.02028939,-0.029870
 77,-0.00038875,-0.09863321,-0.12076745,-0.00800459,0.01512466,0.018491
 31,-0.00085209,-0.00429486,0.00354546,-0.00016120,-0.00282862,-0.00087
 482,-0.00075506,0.00006828,-0.00064294,0.00044825,0.00089457,0.0004862
 8,0.00089173,0.11002724,-0.01250721,-0.00765413,-0.00075057,-0.1193504
 4,-0.28512588,-0.01671679,-0.00364486,-0.06093853,-0.00096453,0.006030
 01,-0.00057599,-0.00004311,0.00058609,0.00111808,-0.00000639,-0.000193
 83,-0.00012044,-0.00005321,-0.00050918,-0.00068744,-0.00112866,0.12967
 873,0.35392344,0.00784658,0.00222582,0.01887749,-0.01959743,-0.0221996
 1,-0.03516586,0.00604318,-0.00191914,0.01549279,0.00093517,0.00045107,
 0.00402162,-0.00398797,0.00027948,0.00042663,0.00016933,0.00048524,-0.
 00303535,0.00016830,0.00074780,-0.00562903,0.00854621,0.01996014,0.006
 64034,-0.20012584,0.10821683,0.00672347,-0.03092504,0.01435657,0.00230
 427,-0.00320359,0.00312359,0.00045817,-0.00154397,-0.00279356,0.000261
 97,0.00084220,0.00531291,0.00057448,0.00030451,0.00018290,-0.00018008,
 0.00008530,0.00019071,-0.00008529,-0.00006883,-0.00008935,-0.00012330,
 0.23463525,0.11123179,-0.12742323,-0.00462377,-0.00522349,0.00765358,0
 .00046945,-0.00400910,-0.00204547,0.00012258,0.00206566,-0.00299449,0.
 00023847,0.02399724,-0.02812256,-0.00104506,-0.00016905,0.00005022,0.0
 0005325,0.00065328,-0.00014741,0.00000143,-0.00004582,0.00006093,-0.00
 003078,-0.12850063,0.15296834,0.00768660,-0.00560288,-0.05036603,0.000
 18344,-0.00071465,0.00711308,0.00143304,-0.00130185,0.00286099,0.00172
 563,0.00050922,0.00613845,-0.00143738,0.00234148,0.00914930,0.00007116
 ,0.00017648,-0.00120539,-0.00000421,0.00007472,-0.00333804,0.00027547,
 -0.00029692,-0.00162871,-0.00993371,0.00481442,0.03127619\\-0.14859966
 ,-0.00399244,0.00641264,-0.01424716,0.13098171,0.00902793,0.18797194,0
 .00177069,-0.01081146,0.04450151,-0.21011551,0.00678091,-0.06706645,0.
 07564655,-0.01136680,-0.02234778,-0.01414894,0.00728492,-0.01347942,0.
 02458520,-0.00190361,0.00830291,0.00677884,-0.00481720,0.02496411,-0.0
 1150609,-0.00060734\\\@


 FESTINA LENTE!
     - IMPERATOR AUGUSTUS 
 Job cpu time:       0 days  0 hours  0 minutes  0.4 seconds.
 File lengths (MBytes):  RWF=      6 Int=      0 D2E=      0 Chk=      2 Scr=      1
 Normal termination of Gaussian 09 at Mon Mar 14 17:12:46 2016.
