 Entering Gaussian System, Link 0=g09
 Input=best.com
 Output=best.log
 Initial command:
 /opt/g09/g09/l1.exe "/opt/g09/scratch/Gau-7693.inp" -scrdir="/opt/g09/scratch/"
 Entering Link 1 = /opt/g09/g09/l1.exe PID=      7694.
  
 Copyright (c) 1988,1990,1992,1993,1995,1998,2003,2009,2013,
            Gaussian, Inc.  All Rights Reserved.
  
 This is part of the Gaussian(R) 09 program.  It is based on
 the Gaussian(R) 03 system (copyright 2003, Gaussian, Inc.),
 the Gaussian(R) 98 system (copyright 1998, Gaussian, Inc.),
 the Gaussian(R) 94 system (copyright 1995, Gaussian, Inc.),
 the Gaussian 92(TM) system (copyright 1992, Gaussian, Inc.),
 the Gaussian 90(TM) system (copyright 1990, Gaussian, Inc.),
 the Gaussian 88(TM) system (copyright 1988, Gaussian, Inc.),
 the Gaussian 86(TM) system (copyright 1986, Carnegie Mellon
 University), and the Gaussian 82(TM) system (copyright 1983,
 Carnegie Mellon University). Gaussian is a federally registered
 trademark of Gaussian, Inc.
  
 This software contains proprietary and confidential information,
 including trade secrets, belonging to Gaussian, Inc.
  
 This software is provided under written license and may be
 used, copied, transmitted, or stored only in accord with that
 written license.
  
 The following legend is applicable only to US Government
 contracts under FAR:
  
                    RESTRICTED RIGHTS LEGEND
  
 Use, reproduction and disclosure by the US Government is
 subject to restrictions as set forth in subparagraphs (a)
 and (c) of the Commercial Computer Software - Restricted
 Rights clause in FAR 52.227-19.
  
 Gaussian, Inc.
 340 Quinnipiac St., Bldg. 40, Wallingford CT 06492
  
  
 ---------------------------------------------------------------
 Warning -- This program may not be used in any manner that
 competes with the business of Gaussian, Inc. or will provide
 assistance to any competitor of Gaussian, Inc.  The licensee
 of this program is prohibited from giving any competitor of
 Gaussian, Inc. access to this program.  By using this program,
 the user acknowledges that Gaussian, Inc. is engaged in the
 business of creating and licensing software in the field of
 computational chemistry and represents and warrants to the
 licensee that it is not a competitor of Gaussian, Inc. and that
 it will not use this program in any manner prohibited above.
 ---------------------------------------------------------------
  

 Cite this work as:
 Gaussian 09, Revision D.01,
 M. J. Frisch, G. W. Trucks, H. B. Schlegel, G. E. Scuseria, 
 M. A. Robb, J. R. Cheeseman, G. Scalmani, V. Barone, B. Mennucci, 
 G. A. Petersson, H. Nakatsuji, M. Caricato, X. Li, H. P. Hratchian, 
 A. F. Izmaylov, J. Bloino, G. Zheng, J. L. Sonnenberg, M. Hada, 
 M. Ehara, K. Toyota, R. Fukuda, J. Hasegawa, M. Ishida, T. Nakajima, 
 Y. Honda, O. Kitao, H. Nakai, T. Vreven, J. A. Montgomery, Jr., 
 J. E. Peralta, F. Ogliaro, M. Bearpark, J. J. Heyd, E. Brothers, 
 K. N. Kudin, V. N. Staroverov, T. Keith, R. Kobayashi, J. Normand, 
 K. Raghavachari, A. Rendell, J. C. Burant, S. S. Iyengar, J. Tomasi, 
 M. Cossi, N. Rega, J. M. Millam, M. Klene, J. E. Knox, J. B. Cross, 
 V. Bakken, C. Adamo, J. Jaramillo, R. Gomperts, R. E. Stratmann, 
 O. Yazyev, A. J. Austin, R. Cammi, C. Pomelli, J. W. Ochterski, 
 R. L. Martin, K. Morokuma, V. G. Zakrzewski, G. A. Voth, 
 P. Salvador, J. J. Dannenberg, S. Dapprich, A. D. Daniels, 
 O. Farkas, J. B. Foresman, J. V. Ortiz, J. Cioslowski, 
 and D. J. Fox, Gaussian, Inc., Wallingford CT, 2013.
 
 ******************************************
 Gaussian 09:  ES64L-G09RevD.01 24-Apr-2013
                17-Mar-2016 
 ******************************************
 -----------------------
 #P AM1(Input,Print) opt
 -----------------------
 1/14=-1,18=20,19=15,26=1,38=1/1,3;
 2/9=110,12=2,17=6,18=5,40=1/2;
 3/5=2,16=1,25=1,41=700000,71=1,135=100,136=1/1,2,3;
 4/35=1/1;
 5/5=2,35=1,38=5/2;
 6/7=2,8=2,9=2,10=2,28=1/1;
 7//1,2,3,16;
 1/14=-1,18=20,19=15,26=1/3(2);
 2/9=110/2;
 99//99;
 2/9=110/2;
 3/5=2,16=1,25=1,41=700000,71=1,135=20,136=1/1,2,3;
 4/5=5,16=3,35=1/1;
 5/5=2,35=1,38=5/2;
 7//1,2,3,16;
 1/14=-1,18=20,19=15,26=1/3(-5);
 2/9=110/2;
 6/7=2,8=2,9=2,10=2,19=2,28=1/1;
 99/9=1/99;
 Leave Link    1 at Thu Mar 17 08:41:08 2016, MaxMem=           0 cpu:         0.0
 (Enter /opt/g09/g09/l101.exe)
 ----
 best
 ----
 Symbolic Z-matrix:
 Charge =  0 Multiplicity = 1
 6                     0.91331  -0.63938  -0.01918 
 6                    -0.33654  -1.10174   0.01181 
 8                    -1.15466  -0.01172  -0.00278 
 6                    -0.33048   1.11718   0.09514 
 6                     0.97316   0.65155  -0.02322 
 1                     1.81678   1.37463  -0.0193 
 1                    -0.83892   2.03627  -0.00043 
 1                    -0.83032  -2.06268   0.05253 
 1                     1.80918  -1.36853   0.01115 
 
 NAtoms=      9 NQM=        9 NQMF=       0 NMMI=      0 NMMIF=      0
                NMic=       0 NMicF=      0.
                    Isotopes and Nuclear Properties:
 (Nuclear quadrupole moments (NQMom) in fm**2, nuclear magnetic moments (NMagM)
  in nuclear magnetons)

  Atom         1           2           3           4           5           6           7           8           9
 IAtWgt=          12          12          16          12          12           1           1           1           1
 AtmWgt=  12.0000000  12.0000000  15.9949146  12.0000000  12.0000000   1.0078250   1.0078250   1.0078250   1.0078250
 NucSpn=           0           0           0           0           0           1           1           1           1
 AtZEff=   0.0000000   0.0000000   0.0000000   0.0000000   0.0000000   0.0000000   0.0000000   0.0000000   0.0000000
 NQMom=    0.0000000   0.0000000   0.0000000   0.0000000   0.0000000   0.0000000   0.0000000   0.0000000   0.0000000
 NMagM=    0.0000000   0.0000000   0.0000000   0.0000000   0.0000000   2.7928460   2.7928460   2.7928460   2.7928460
 AtZNuc=   6.0000000   6.0000000   8.0000000   6.0000000   6.0000000   1.0000000   1.0000000   1.0000000   1.0000000
 Leave Link  101 at Thu Mar 17 08:41:08 2016, MaxMem=    33554432 cpu:         0.0
 (Enter /opt/g09/g09/l103.exe)

 GradGradGradGradGradGradGradGradGradGradGradGradGradGradGradGradGradGrad
 Berny optimization.
 Initialization pass.
                           ----------------------------
                           !    Initial Parameters    !
                           ! (Angstroms and Degrees)  !
 --------------------------                            --------------------------
 ! Name  Definition              Value          Derivative Info.                !
 --------------------------------------------------------------------------------
 ! R1    R(1,2)                  1.333          estimate D2E/DX2                !
 ! R2    R(1,5)                  1.2923         estimate D2E/DX2                !
 ! R3    R(1,9)                  1.1555         estimate D2E/DX2                !
 ! R4    R(2,3)                  1.363          estimate D2E/DX2                !
 ! R5    R(2,8)                  1.0811         estimate D2E/DX2                !
 ! R6    R(3,4)                  1.4012         estimate D2E/DX2                !
 ! R7    R(4,5)                  1.3894         estimate D2E/DX2                !
 ! R8    R(4,7)                  1.0547         estimate D2E/DX2                !
 ! R9    R(5,6)                  1.1111         estimate D2E/DX2                !
 ! A1    A(2,1,5)              112.9536         estimate D2E/DX2                !
 ! A2    A(2,1,9)              120.4947         estimate D2E/DX2                !
 ! A3    A(5,1,9)              126.4793         estimate D2E/DX2                !
 ! A4    A(1,2,3)              106.5684         estimate D2E/DX2                !
 ! A5    A(1,2,8)              137.5112         estimate D2E/DX2                !
 ! A6    A(3,2,8)              115.9173         estimate D2E/DX2                !
 ! A7    A(2,3,4)              106.889          estimate D2E/DX2                !
 ! A8    A(3,4,5)              106.0189         estimate D2E/DX2                !
 ! A9    A(3,4,7)              114.3432         estimate D2E/DX2                !
 ! A10   A(5,4,7)              137.4485         estimate D2E/DX2                !
 ! A11   A(1,5,4)              106.9213         estimate D2E/DX2                !
 ! A12   A(1,5,6)              133.2534         estimate D2E/DX2                !
 ! A13   A(4,5,6)              119.6052         estimate D2E/DX2                !
 ! D1    D(5,1,2,3)              1.4063         estimate D2E/DX2                !
 ! D2    D(5,1,2,8)           -177.8889         estimate D2E/DX2                !
 ! D3    D(9,1,2,3)            178.5052         estimate D2E/DX2                !
 ! D4    D(9,1,2,8)             -0.79           estimate D2E/DX2                !
 ! D5    D(2,1,5,4)              3.7924         estimate D2E/DX2                !
 ! D6    D(2,1,5,6)            178.1832         estimate D2E/DX2                !
 ! D7    D(9,1,5,4)           -173.0985         estimate D2E/DX2                !
 ! D8    D(9,1,5,6)              1.2923         estimate D2E/DX2                !
 ! D9    D(1,2,3,4)             -5.9476         estimate D2E/DX2                !
 ! D10   D(8,2,3,4)            173.5231         estimate D2E/DX2                !
 ! D11   D(2,3,4,5)              8.1168         estimate D2E/DX2                !
 ! D12   D(2,3,4,7)            174.3113         estimate D2E/DX2                !
 ! D13   D(3,4,5,1)             -7.2747         estimate D2E/DX2                !
 ! D14   D(3,4,5,6)            177.4219         estimate D2E/DX2                !
 ! D15   D(7,4,5,1)           -168.5215         estimate D2E/DX2                !
 ! D16   D(7,4,5,6)             16.1751         estimate D2E/DX2                !
 --------------------------------------------------------------------------------
 Trust Radius=3.00D-01 FncErr=1.00D-07 GrdErr=1.00D-07
 Number of steps in this run=     48 maximum allowed number of steps=    100.
 GradGradGradGradGradGradGradGradGradGradGradGradGradGradGradGradGradGrad

 Leave Link  103 at Thu Mar 17 08:41:08 2016, MaxMem=    33554432 cpu:         0.0
 (Enter /opt/g09/g09/l202.exe)
                          Input orientation:                          
 ---------------------------------------------------------------------
 Center     Atomic      Atomic             Coordinates (Angstroms)
 Number     Number       Type             X           Y           Z
 ---------------------------------------------------------------------
      1          6           0        0.913313   -0.639375   -0.019180
      2          6           0       -0.336540   -1.101744    0.011811
      3          8           0       -1.154662   -0.011720   -0.002778
      4          6           0       -0.330480    1.117179    0.095138
      5          6           0        0.973161    0.651553   -0.023219
      6          1           0        1.816779    1.374633   -0.019301
      7          1           0       -0.838923    2.036268   -0.000431
      8          1           0       -0.830324   -2.062675    0.052530
      9          1           0        1.809178   -1.368531    0.011149
 ---------------------------------------------------------------------
                    Distance matrix (angstroms):
                    1          2          3          4          5
     1  C    0.000000
     2  C    1.332996   0.000000
     3  O    2.161190   1.362971   0.000000
     4  C    2.155359   2.220495   1.401170   0.000000
     5  C    1.292321   2.188743   2.228897   1.389351   0.000000
     6  H    2.207369   3.281797   3.278980   2.165664   1.111104
     7  H    3.198398   3.177996   2.072185   1.054691   2.280702
     8  H    2.251931   1.081142   2.077179   3.219182   3.259652
     9  H    1.155492   2.162240   3.259674   3.280845   2.186514
                    6          7          8          9
     6  H    0.000000
     7  H    2.736945   0.000000
     8  H    4.339055   4.099294   0.000000
     9  H    2.743344   4.313378   2.729564   0.000000
 Stoichiometry    C4H4O
 Framework group  C1[X(C4H4O)]
 Deg. of freedom    21
 Full point group                 C1      NOp   1
 Largest Abelian subgroup         C1      NOp   1
 Largest concise Abelian subgroup C1      NOp   1
                         Standard orientation:                         
 ---------------------------------------------------------------------
 Center     Atomic      Atomic             Coordinates (Angstroms)
 Number     Number       Type             X           Y           Z
 ---------------------------------------------------------------------
      1          6           0        0.342235    1.061457   -0.007884
      2          6           0        1.153622    0.003983    0.008803
      3          8           0        0.354760   -1.099556   -0.032531
      4          6           0       -0.968188   -0.648258    0.064505
      5          6           0       -0.908490    0.736785   -0.027079
      6          1           0       -1.848897    1.328492   -0.018643
      7          1           0       -1.694870   -1.403928   -0.050684
      8          1           0        2.217337   -0.184099    0.053581
      9          1           0        0.773286    2.132186    0.045928
 ---------------------------------------------------------------------
 Rotational constants (GHZ):      9.8079453      9.3896836      4.8047444
 Leave Link  202 at Thu Mar 17 08:41:08 2016, MaxMem=    33554432 cpu:         0.0
 (Enter /opt/g09/g09/l301.exe)

 Semi-emprical parameters in input format:
 Method=8 CoreType=1 PeptideFC=0.0114505045 RIJScale=0.5291772086
 ****
 H       
 PQN=1 NValence=1 F0ss=0.4721553327 ZetaOverlap=1.1880780000 U=-0.4188110042
 Beta=-0.2268825074 CoreKO=1.0589197790 KON=0,0,0,1.0647631153 KON=1,0,1,1.1401254790
 KON=0,1,1,0.9732638814 KON=2,1,1,1.0589197790 EISol=-0.4188110042 EHeat=0.0830298228
 Alpha=1.5865495725
 GCore=0.0084439869,1.4001425905,2.2676713595
 GCore=0.0003568368,1.2713995568,3.4015070392
 GCore=-0.0011601096,0.5600570362,4.0700853433
 ****
 C       
 PQN=2,2 NValence=4 F0ss=0.4494442496 F0sp=0.4215147623 F0pp=0.3768030831 F2pp=0.2046882875
 G1sp=0.2481533461
 ZetaOverlap=1.7655688186,1.6851160000
 U=-1.8824233337,-1.4557965594
 Beta=-0.5484703939,-0.2836784428 DDN=0,1,0.8236736000 DDN=1,1,0.7268015000
 CoreKO=1.1124284736 KON=0,0,0,1.1806077266 KON=1,0,1,0.8974706024 KON=0,1,1,1.0539723197
 KON=2,1,1,0.7783928119 EISol=-4.4398989268 EHeat=0.2723305520 Alpha=1.4014062429
 DipHyp=1.6472524267
 GCore=0.0007885612,1.4001425905,3.0235618126
 GCore=0.0031892455,1.3035296846,3.4959933458
 GCore=-0.0013931594,1.4001425905,3.5039447890
 GCore=-0.0000875022,1.4001425905,4.5400993048
 ****
 O       
 PQN=2,2 NValence=6 F0ss=0.5178706425 F0sp=0.5193533485 F0pp=0.4958708974 F2pp=0.2563824545
 G1sp=0.4343770262
 ZetaOverlap=2.8500385664,2.5240390000
 U=-3.5951865036,-2.8760896690
 Beta=-1.0757546603,-1.0757546603 DDN=0,1,0.5276493399 DDN=1,1,0.4852322000
 CoreKO=0.8822957477 KON=0,0,0,0.8822957477 KON=1,0,1,0.5019543089 KON=0,1,1,0.8822957477
 KON=2,1,1,0.5515584117 EISol=-11.6164441184 EHeat=0.0949133088 Alpha=2.3576807890
 DipHyp=1.0552379675
 GCore=0.0204988524,1.4001425905,1.6023328031
 GCore=0.0059413965,1.9601996266,2.7307884326
 ****
 
 Standard basis: VSTO-6G (5D, 7F)
 Ernie: Thresh=  0.10000D-02 Tol=  0.10000D-05 Strict=F.
  NNHCO=     0 NNPyr=     0 NCTC=     0               EPep=         0.000000000
    EC=        69.129119902  ECS=         1.848983303   EG=         0.367355826
   EHC=         0.000000000  EAt=       -31.051283842  AtH=         1.516354808
 EPDDG=         0.000000000  ECC=        71.345459031 EAtT=        32.567638650
 There are    24 symmetry adapted cartesian basis functions of A   symmetry.
 There are    24 symmetry adapted basis functions of A   symmetry.
    24 basis functions,   144 primitive gaussians,    24 cartesian basis functions
    13 alpha electrons       13 beta electrons
       nuclear repulsion energy       103.9130976811 Hartrees.
 IExCor=    0 DFT=F Ex=HF Corr=None ExCW=0 ScaHFX=  1.000000
 ScaDFX=  1.000000  1.000000  1.000000  1.000000 ScalE2=  1.000000  1.000000
 IRadAn=      0 IRanWt=     -1 IRanGd=            0 ICorTp=0 IEmpDi=  4
 Integral buffers will be    131072 words long.
 Regular integral format.
 Two-electron integral symmetry is turned off.
 Leave Link  301 at Thu Mar 17 08:41:08 2016, MaxMem=    33554432 cpu:         0.0
 (Enter /opt/g09/g09/l302.exe)
 Do NDO integrals.
 NPDir=0 NMtPBC=     1 NCelOv=     1 NCel=       1 NClECP=     1 NCelD=      1
         NCelK=      1 NCelE2=     1 NClLst=     1 CellRange=     0.0.
 One-electron integrals computed using PRISM.
 NBasis=    24 RedAO= F EigKep=  0.00D+00  NBF=    24
 NBsUse=    24 1.00D-04 EigRej=  0.00D+00 NBFU=    24
 Leave Link  302 at Thu Mar 17 08:41:08 2016, MaxMem=    33554432 cpu:         0.0
 (Enter /opt/g09/g09/l303.exe)
 DipDrv:  MaxL=1.
 Leave Link  303 at Thu Mar 17 08:41:08 2016, MaxMem=    33554432 cpu:         0.0
 (Enter /opt/g09/g09/l401.exe)
 Simple Huckel Guess.
 JPrj=0 DoOrth=F DoCkMO=F.
 Leave Link  401 at Thu Mar 17 08:41:08 2016, MaxMem=    33554432 cpu:         0.0
 (Enter /opt/g09/g09/l502.exe)
 Closed shell SCF:
 Using DIIS extrapolation, IDIIS=  1040.
 Overlap will be assumed to be unity.
 Two-electron integral symmetry not used.
 Keep J ints in memory in canonical form, NReq=888082.
 IVT=       79475 IEndB=       79475 NGot=    33554432 MDV=    33473473
 LenX=    33473473 LenY=    33472456
 Requested convergence on RMS density matrix=1.00D-08 within 128 cycles.
 Requested convergence on MAX density matrix=1.00D-06.
 Requested convergence on             energy=1.00D-06.
 No special actions if energy rises.
 FoFCou: FMM=F IPFlag=           0 FMFlag=           0 FMFlg1=           0
         NFxFlg=           0 DoJE=F BraDBF=F KetDBF=F FulRan=T
         wScrn=  0.000000 ICntrl=     600 IOpCl=  2 I1Cent=           0 NGrid=           0
         NMat0=    1 NMatS0=     54 NMatT0=    0 NMatD0=    1 NMtDS0=    0 NMtDT0=    0
 Symmetry not used in FoFCou.

 Cycle   1  Pass 1  IDiag  1:
 E= 0.374569689660248    
 DIIS: error= 7.16D-02 at cycle   1 NSaved=   1.
 NSaved= 1 IEnMin= 1 EnMin= 0.374569689660248     IErMin= 1 ErrMin= 7.16D-02
 ErrMax= 7.16D-02  0.00D+00 EMaxC= 1.00D-01 BMatC= 1.08D-01 BMatP= 1.08D-01
 IDIUse=3 WtCom= 2.84D-01 WtEn= 7.16D-01
 Coeff-Com:  0.100D+01
 Coeff-En:   0.100D+01
 Coeff:      0.100D+01
 GapD=    2.000 DampG=2.000 DampE=0.500 DampFc=1.0000 IDamp=-1.
 RMSDP=1.80D-02 MaxDP=1.61D-01              OVMax= 0.00D+00

 Cycle   2  Pass 1  IDiag  1:
 E= 0.125398924662719     Delta-E=       -0.249170764998 Rises=F Damp=F
 DIIS: error= 1.82D-02 at cycle   2 NSaved=   2.
 NSaved= 2 IEnMin= 2 EnMin= 0.125398924662719     IErMin= 2 ErrMin= 1.82D-02
 ErrMax= 1.82D-02  0.00D+00 EMaxC= 1.00D-01 BMatC= 8.09D-03 BMatP= 1.08D-01
 IDIUse=3 WtCom= 8.18D-01 WtEn= 1.82D-01
 Coeff-Com: -0.331D+00 0.133D+01
 Coeff-En:   0.000D+00 0.100D+01
 Coeff:     -0.270D+00 0.127D+01
 RMSDP=7.16D-03 MaxDP=5.76D-02 DE=-2.49D-01 OVMax= 0.00D+00

 Cycle   3  Pass 1  IDiag  3:
 E= 0.101275831794283     Delta-E=       -0.024123092868 Rises=F Damp=F
 DIIS: error= 3.54D-03 at cycle   3 NSaved=   3.
 NSaved= 3 IEnMin= 3 EnMin= 0.101275831794283     IErMin= 3 ErrMin= 3.54D-03
 ErrMax= 3.54D-03  0.00D+00 EMaxC= 1.00D-01 BMatC= 2.78D-04 BMatP= 8.09D-03
 IDIUse=3 WtCom= 9.65D-01 WtEn= 3.54D-02
 Coeff-Com:  0.132D+00-0.615D+00 0.148D+01
 Coeff-En:   0.000D+00 0.000D+00 0.100D+01
 Coeff:      0.128D+00-0.593D+00 0.147D+01
 Gap=     0.360 Goal=   None    Shift=    0.000
 RMSDP=2.15D-03 MaxDP=2.24D-02 DE=-2.41D-02 OVMax= 2.68D-02

 Cycle   4  Pass 1  IDiag  3:
 E= 0.998052071687994E-01 Delta-E=       -0.001470624625 Rises=F Damp=F
 DIIS: error= 9.04D-04 at cycle   4 NSaved=   4.
 NSaved= 4 IEnMin= 4 EnMin= 0.998052071687994E-01 IErMin= 4 ErrMin= 9.04D-04
 ErrMax= 9.04D-04  0.00D+00 EMaxC= 1.00D-01 BMatC= 1.74D-05 BMatP= 2.78D-04
 IDIUse=3 WtCom= 9.91D-01 WtEn= 9.04D-03
 Coeff-Com:  0.587D-02-0.196D-01-0.211D+00 0.122D+01
 Coeff-En:   0.000D+00 0.000D+00 0.000D+00 0.100D+01
 Coeff:      0.582D-02-0.194D-01-0.209D+00 0.122D+01
 Gap=     0.361 Goal=   None    Shift=    0.000
 RMSDP=6.29D-04 MaxDP=6.92D-03 DE=-1.47D-03 OVMax= 7.94D-03

 Cycle   5  Pass 1  IDiag  3:
 E= 0.997001435182341E-01 Delta-E=       -0.000105063651 Rises=F Damp=F
 DIIS: error= 1.51D-04 at cycle   5 NSaved=   5.
 NSaved= 5 IEnMin= 5 EnMin= 0.997001435182341E-01 IErMin= 5 ErrMin= 1.51D-04
 ErrMax= 1.51D-04  0.00D+00 EMaxC= 1.00D-01 BMatC= 1.25D-06 BMatP= 1.74D-05
 IDIUse=3 WtCom= 9.98D-01 WtEn= 1.51D-03
 Coeff-Com: -0.580D-02 0.261D-01 0.318D-01-0.542D+00 0.149D+01
 Coeff-En:   0.000D+00 0.000D+00 0.000D+00 0.000D+00 0.100D+01
 Coeff:     -0.579D-02 0.261D-01 0.318D-01-0.541D+00 0.149D+01
 Gap=     0.361 Goal=   None    Shift=    0.000
 RMSDP=2.01D-04 MaxDP=1.47D-03 DE=-1.05D-04 OVMax= 2.11D-03

 Cycle   6  Pass 1  IDiag  3:
 E= 0.996912793987974E-01 Delta-E=       -0.000008864119 Rises=F Damp=F
 DIIS: error= 7.06D-05 at cycle   6 NSaved=   6.
 NSaved= 6 IEnMin= 6 EnMin= 0.996912793987974E-01 IErMin= 6 ErrMin= 7.06D-05
 ErrMax= 7.06D-05  0.00D+00 EMaxC= 1.00D-01 BMatC= 9.15D-08 BMatP= 1.25D-06
 IDIUse=1 WtCom= 1.00D+00 WtEn= 0.00D+00
 Coeff-Com:  0.253D-02-0.111D-01-0.298D-02 0.184D+00-0.689D+00 0.152D+01
 Coeff:      0.253D-02-0.111D-01-0.298D-02 0.184D+00-0.689D+00 0.152D+01
 Gap=     0.361 Goal=   None    Shift=    0.000
 RMSDP=6.38D-05 MaxDP=5.08D-04 DE=-8.86D-06 OVMax= 8.35D-04

 Cycle   7  Pass 1  IDiag  3:
 E= 0.996904785115902E-01 Delta-E=       -0.000000800887 Rises=F Damp=F
 DIIS: error= 2.67D-05 at cycle   7 NSaved=   7.
 NSaved= 7 IEnMin= 7 EnMin= 0.996904785115902E-01 IErMin= 7 ErrMin= 2.67D-05
 ErrMax= 2.67D-05  0.00D+00 EMaxC= 1.00D-01 BMatC= 8.87D-09 BMatP= 9.15D-08
 IDIUse=1 WtCom= 1.00D+00 WtEn= 0.00D+00
 Coeff-Com: -0.473D-03 0.173D-02 0.170D-02-0.420D-01 0.180D+00-0.680D+00
 Coeff-Com:  0.154D+01
 Coeff:     -0.473D-03 0.173D-02 0.170D-02-0.420D-01 0.180D+00-0.680D+00
 Coeff:      0.154D+01
 Gap=     0.361 Goal=   None    Shift=    0.000
 RMSDP=2.42D-05 MaxDP=2.18D-04 DE=-8.01D-07 OVMax= 2.87D-04

 Cycle   8  Pass 1  IDiag  3:
 E= 0.996903900249180E-01 Delta-E=       -0.000000088487 Rises=F Damp=F
 DIIS: error= 6.32D-06 at cycle   8 NSaved=   8.
 NSaved= 8 IEnMin= 8 EnMin= 0.996903900249180E-01 IErMin= 8 ErrMin= 6.32D-06
 ErrMax= 6.32D-06  0.00D+00 EMaxC= 1.00D-01 BMatC= 5.47D-10 BMatP= 8.87D-09
 IDIUse=1 WtCom= 1.00D+00 WtEn= 0.00D+00
 Coeff-Com:  0.724D-04-0.898D-04-0.188D-02 0.165D-01-0.642D-01 0.274D+00
 Coeff-Com: -0.826D+00 0.160D+01
 Coeff:      0.724D-04-0.898D-04-0.188D-02 0.165D-01-0.642D-01 0.274D+00
 Coeff:     -0.826D+00 0.160D+01
 Gap=     0.361 Goal=   None    Shift=    0.000
 RMSDP=6.18D-06 MaxDP=5.64D-05 DE=-8.85D-08 OVMax= 7.71D-05

 Cycle   9  Pass 1  IDiag  3:
 E= 0.996903849507902E-01 Delta-E=       -0.000000005074 Rises=F Damp=F
 DIIS: error= 8.45D-07 at cycle   9 NSaved=   9.
 NSaved= 9 IEnMin= 9 EnMin= 0.996903849507902E-01 IErMin= 9 ErrMin= 8.45D-07
 ErrMax= 8.45D-07  0.00D+00 EMaxC= 1.00D-01 BMatC= 1.92D-11 BMatP= 5.47D-10
 IDIUse=1 WtCom= 1.00D+00 WtEn= 0.00D+00
 Coeff-Com:  0.110D-04-0.128D-03 0.609D-03-0.314D-02 0.120D-01-0.638D-01
 Coeff-Com:  0.230D+00-0.593D+00 0.142D+01
 Coeff:      0.110D-04-0.128D-03 0.609D-03-0.314D-02 0.120D-01-0.638D-01
 Coeff:      0.230D+00-0.593D+00 0.142D+01
 Gap=     0.361 Goal=   None    Shift=    0.000
 RMSDP=8.61D-07 MaxDP=6.87D-06 DE=-5.07D-09 OVMax= 1.16D-05

 Cycle  10  Pass 1  IDiag  3:
 E= 0.996903848224804E-01 Delta-E=       -0.000000000128 Rises=F Damp=F
 DIIS: error= 1.15D-07 at cycle  10 NSaved=  10.
 NSaved=10 IEnMin=10 EnMin= 0.996903848224804E-01 IErMin=10 ErrMin= 1.15D-07
 ErrMax= 1.15D-07  0.00D+00 EMaxC= 1.00D-01 BMatC= 9.64D-13 BMatP= 1.92D-11
 IDIUse=1 WtCom= 1.00D+00 WtEn= 0.00D+00
 Coeff-Com: -0.768D-05 0.674D-04-0.264D-03 0.119D-02-0.438D-02 0.241D-01
 Coeff-Com: -0.900D-01 0.243D+00-0.708D+00 0.153D+01
 Coeff:     -0.768D-05 0.674D-04-0.264D-03 0.119D-02-0.438D-02 0.241D-01
 Coeff:     -0.900D-01 0.243D+00-0.708D+00 0.153D+01
 Gap=     0.361 Goal=   None    Shift=    0.000
 RMSDP=1.74D-07 MaxDP=8.48D-07 DE=-1.28D-10 OVMax= 1.56D-06

 Cycle  11  Pass 1  IDiag  3:
 E= 0.996903848160713E-01 Delta-E=       -0.000000000006 Rises=F Damp=F
 DIIS: error= 3.33D-08 at cycle  11 NSaved=  11.
 NSaved=11 IEnMin=11 EnMin= 0.996903848160713E-01 IErMin=11 ErrMin= 3.33D-08
 ErrMax= 3.33D-08  0.00D+00 EMaxC= 1.00D-01 BMatC= 4.34D-14 BMatP= 9.64D-13
 IDIUse=1 WtCom= 1.00D+00 WtEn= 0.00D+00
 Coeff-Com:  0.295D-05-0.278D-04 0.114D-03-0.541D-03 0.197D-02-0.106D-01
 Coeff-Com:  0.391D-01-0.105D+00 0.312D+00-0.779D+00 0.154D+01
 Coeff:      0.295D-05-0.278D-04 0.114D-03-0.541D-03 0.197D-02-0.106D-01
 Coeff:      0.391D-01-0.105D+00 0.312D+00-0.779D+00 0.154D+01
 Gap=     0.361 Goal=   None    Shift=    0.000
 RMSDP=4.03D-08 MaxDP=1.97D-07 DE=-6.41D-12 OVMax= 5.06D-07

 Cycle  12  Pass 1  IDiag  3:
 E= 0.996903848158297E-01 Delta-E=        0.000000000000 Rises=F Damp=F
 DIIS: error= 8.16D-09 at cycle  12 NSaved=  12.
 NSaved=12 IEnMin=12 EnMin= 0.996903848158297E-01 IErMin=12 ErrMin= 8.16D-09
 ErrMax= 8.16D-09  0.00D+00 EMaxC= 1.00D-01 BMatC= 3.17D-15 BMatP= 4.34D-14
 IDIUse=1 WtCom= 1.00D+00 WtEn= 0.00D+00
 Coeff-Com: -0.117D-05 0.114D-04-0.464D-04 0.224D-03-0.808D-03 0.439D-02
 Coeff-Com: -0.162D-01 0.434D-01-0.130D+00 0.333D+00-0.837D+00 0.160D+01
 Coeff:     -0.117D-05 0.114D-04-0.464D-04 0.224D-03-0.808D-03 0.439D-02
 Coeff:     -0.162D-01 0.434D-01-0.130D+00 0.333D+00-0.837D+00 0.160D+01
 Gap=     0.361 Goal=   None    Shift=    0.000
 RMSDP=1.31D-08 MaxDP=7.06D-08 DE=-2.42D-13 OVMax= 1.92D-07

 Cycle  13  Pass 1  IDiag  3:
 E= 0.996903848157302E-01 Delta-E=        0.000000000000 Rises=F Damp=F
 DIIS: error= 1.60D-09 at cycle  13 NSaved=  13.
 NSaved=13 IEnMin=13 EnMin= 0.996903848157302E-01 IErMin=13 ErrMin= 1.60D-09
 ErrMax= 1.60D-09  0.00D+00 EMaxC= 1.00D-01 BMatC= 1.77D-16 BMatP= 3.17D-15
 IDIUse=1 WtCom= 1.00D+00 WtEn= 0.00D+00
 Coeff-Com:  0.227D-06-0.224D-05 0.878D-05-0.427D-04 0.152D-03-0.840D-03
 Coeff-Com:  0.309D-02-0.822D-02 0.248D-01-0.655D-01 0.194D+00-0.570D+00
 Coeff-Com:  0.142D+01
 Coeff:      0.227D-06-0.224D-05 0.878D-05-0.427D-04 0.152D-03-0.840D-03
 Coeff:      0.309D-02-0.822D-02 0.248D-01-0.655D-01 0.194D+00-0.570D+00
 Coeff:      0.142D+01
 Gap=     0.361 Goal=   None    Shift=    0.000
 RMSDP=2.83D-09 MaxDP=1.50D-08 DE=-9.95D-14 OVMax= 3.98D-08

 Cycle  14  Pass 2  IDiag  1:
 SCF Done:  E(RAM1) =  0.996903848157E-01 A.U. after   14 cycles
            NFock= 13  Conv=0.28D-08     -V/T= 1.0060
 KE=-1.669311000771D+01 PE=-1.718300219443D+02 EE= 8.470972465569D+01
 Leave Link  502 at Thu Mar 17 08:41:08 2016, MaxMem=    33554432 cpu:         0.0
 (Enter /opt/g09/g09/l601.exe)
 Copying SCF densities to generalized density rwf, IOpCl= 0 IROHF=0.

 **********************************************************************

            Population analysis using the SCF density.

 **********************************************************************

 Orbital symmetries:
       Occupied  (A) (A) (A) (A) (A) (A) (A) (A) (A) (A) (A) (A)
                 (A)
       Virtual   (A) (A) (A) (A) (A) (A) (A) (A) (A) (A) (A)
 The electronic state is 1-A.
 Alpha  occ. eigenvalues --   -1.61828  -1.23884  -1.04402  -0.79968  -0.78506
 Alpha  occ. eigenvalues --   -0.68087  -0.60176  -0.55298  -0.51168  -0.49965
 Alpha  occ. eigenvalues --   -0.47441  -0.41197  -0.33266
 Alpha virt. eigenvalues --    0.02835   0.08366   0.11202   0.14407   0.15383
 Alpha virt. eigenvalues --    0.16247   0.18265   0.19272   0.20318   0.21981
 Alpha virt. eigenvalues --    0.22950
          Condensed to atoms (all electrons):
               1          2          3          4          5          6
     1  C    4.197263   0.000000   0.000000   0.000000   0.000000   0.000000
     2  C    0.000000   4.028175   0.000000   0.000000   0.000000   0.000000
     3  O    0.000000   0.000000   6.207714   0.000000   0.000000   0.000000
     4  C    0.000000   0.000000   0.000000   4.054935   0.000000   0.000000
     5  C    0.000000   0.000000   0.000000   0.000000   4.167190   0.000000
     6  H    0.000000   0.000000   0.000000   0.000000   0.000000   0.848025
     7  H    0.000000   0.000000   0.000000   0.000000   0.000000   0.000000
     8  H    0.000000   0.000000   0.000000   0.000000   0.000000   0.000000
     9  H    0.000000   0.000000   0.000000   0.000000   0.000000   0.000000
               7          8          9
     1  C    0.000000   0.000000   0.000000
     2  C    0.000000   0.000000   0.000000
     3  O    0.000000   0.000000   0.000000
     4  C    0.000000   0.000000   0.000000
     5  C    0.000000   0.000000   0.000000
     6  H    0.000000   0.000000   0.000000
     7  H    0.822150   0.000000   0.000000
     8  H    0.000000   0.818573   0.000000
     9  H    0.000000   0.000000   0.855975
 Mulliken charges:
               1
     1  C   -0.197263
     2  C   -0.028175
     3  O   -0.207714
     4  C   -0.054935
     5  C   -0.167190
     6  H    0.151975
     7  H    0.177850
     8  H    0.181427
     9  H    0.144025
 Sum of Mulliken charges =   0.00000
 Mulliken charges with hydrogens summed into heavy atoms:
               1
     1  C   -0.053238
     2  C    0.153251
     3  O   -0.207714
     4  C    0.122915
     5  C   -0.015215
 Charge=              0.0000 electrons
 Dipole moment (field-independent basis, Debye):
    X=             -0.1920    Y=              0.7963    Z=              0.0081  Tot=              0.8192
 N-N= 1.039130976811D+02 E-N=-1.718300219579D+02  KE=-1.669311000771D+01
 Leave Link  601 at Thu Mar 17 08:41:08 2016, MaxMem=    33554432 cpu:         0.0
 (Enter /opt/g09/g09/l701.exe)
 Compute integral first derivatives.
 ... and contract with generalized density number  0.
 Leave Link  701 at Thu Mar 17 08:41:08 2016, MaxMem=    33554432 cpu:         0.0
 (Enter /opt/g09/g09/l702.exe)
 L702 exits ... SP integral derivatives will be done elsewhere.
 Leave Link  702 at Thu Mar 17 08:41:08 2016, MaxMem=    33554432 cpu:         0.0
 (Enter /opt/g09/g09/l703.exe)
 Compute integral first derivatives, UseDBF=F ICtDFT=           0.
 Integral derivatives from FoFJK, PRISM(SPDF).
 Calling FoFJK, ICntrl=      2127 FMM=F ISym2X=0 I1Cent= 0 IOpClX= 0 NMat=1 NMatS=1 NMatT=0.
 FoFJK:  IHMeth= 8 ICntrl=    2127 DoSepK=F KAlg= 0 I1Cent=   0 FoldK=F
 IRaf=         0 NMat=   1 IRICut=       1 DoRegI=T DoRafI=F ISym2E= 0.
 FoFCou: FMM=F IPFlag=           0 FMFlag=      100000 FMFlg1=         800
         NFxFlg=           0 DoJE=F BraDBF=F KetDBF=F FulRan=T
         wScrn=  0.000000 ICntrl=    2127 IOpCl=  0 I1Cent=           0 NGrid=           0
         NMat0=    1 NMatS0=      1 NMatT0=    0 NMatD0=    1 NMtDS0=    0 NMtDT0=    0
 Symmetry not used in FoFCou.
 Leave Link  703 at Thu Mar 17 08:41:08 2016, MaxMem=    33554432 cpu:         0.0
 (Enter /opt/g09/g09/l716.exe)
 Dipole        =-7.55449001D-02 3.13291254D-01 3.20022343D-03
 ***** Axes restored to original set *****
 -------------------------------------------------------------------
 Center     Atomic                   Forces (Hartrees/Bohr)
 Number     Number              X              Y              Z
 -------------------------------------------------------------------
      1        6           0.141924348   -0.217276052   -0.000203123
      2        6          -0.069549241   -0.057959112   -0.000843960
      3        8          -0.053745307    0.030036924    0.012629895
      4        6          -0.022074656    0.000721623   -0.022287641
      5        6           0.045241782    0.218822206    0.012163792
      6        1          -0.007863382   -0.016751749   -0.001347638
      7        1          -0.007330793    0.015699701    0.004655854
      8        1           0.000341527    0.000774008   -0.001359482
      9        1          -0.026944279    0.025932450   -0.003407698
 -------------------------------------------------------------------
 Cartesian Forces:  Max     0.218822206 RMS     0.070089920
 Leave Link  716 at Thu Mar 17 08:41:08 2016, MaxMem=    33554432 cpu:         0.0
 (Enter /opt/g09/g09/l103.exe)

 GradGradGradGradGradGradGradGradGradGradGradGradGradGradGradGradGradGrad
 Berny optimization.
 FormGI is forming the generalized inverse of G from B-inverse, IUseBI=4.
 Internal  Forces:  Max     0.194767326 RMS     0.040089564
 Search for a local minimum.
 Step number   1 out of a maximum of   48
 All quantities printed in internal units (Hartrees-Bohrs-Radians)
 RMS Force = .40090D-01 SwitMx=.10000D-02 MixMth= 1
 Mixed Optimization -- RFO/linear search
 Second derivative matrix not updated -- first step.
 ITU=  0
     Eigenvalues ---    0.02105   0.02354   0.02803   0.02965   0.03030
     Eigenvalues ---    0.03301   0.15294   0.15907   0.15977   0.15999
     Eigenvalues ---    0.21974   0.22804   0.28222   0.32483   0.35857
     Eigenvalues ---    0.39234   0.42139   0.44068   0.50393   0.56021
     Eigenvalues ---    0.66223
 RFO step:  Lambda=-9.18577964D-02 EMin= 2.10521264D-02
 Linear search not attempted -- first point.
 Maximum step size (   0.300) exceeded in Quadratic search.
    -- Step size scaled by   0.804
 Iteration  1 RMS(Cart)=  0.04645079 RMS(Int)=  0.00199803
 Iteration  2 RMS(Cart)=  0.00177754 RMS(Int)=  0.00059218
 Iteration  3 RMS(Cart)=  0.00000234 RMS(Int)=  0.00059218
 Iteration  4 RMS(Cart)=  0.00000000 RMS(Int)=  0.00059218
 ITry= 1 IFail=0 DXMaxC= 1.20D-01 DCOld= 1.00D+10 DXMaxT= 3.00D-01 DXLimC= 3.00D+00 Rises=F
 Variable       Old X    -DE/DX   Delta X   Delta X   Delta X     New X
                                 (Linear)    (Quad)   (Total)
    R1        2.51900   0.09699   0.00000   0.12487   0.12562   2.64462
    R2        2.44213   0.19477   0.00000   0.21003   0.21076   2.65289
    R3        2.18356  -0.03734   0.00000  -0.08031  -0.08031   2.10325
    R4        2.57564   0.06187   0.00000   0.07455   0.07430   2.64994
    R5        2.04306  -0.00090   0.00000  -0.00160  -0.00160   2.04146
    R6        2.64783   0.03029   0.00000   0.02797   0.02705   2.67488
    R7        2.62549   0.04446   0.00000   0.06083   0.06052   2.68601
    R8        1.99308   0.01679   0.00000   0.02790   0.02790   2.02098
    R9        2.09968  -0.01688   0.00000  -0.03258  -0.03258   2.06710
    A1        1.97141  -0.04411   0.00000  -0.06892  -0.06764   1.90378
    A2        2.10303   0.02532   0.00000   0.04501   0.04438   2.14741
    A3        2.20748   0.01872   0.00000   0.02372   0.02307   2.23055
    A4        1.85997   0.00649   0.00000   0.02859   0.02895   1.88892
    A5        2.40002  -0.00322   0.00000  -0.01424  -0.01443   2.38560
    A6        2.02314  -0.00329   0.00000  -0.01444  -0.01463   2.00851
    A7        1.86556   0.02496   0.00000   0.01266   0.01092   1.87649
    A8        1.85038   0.02451   0.00000   0.03882   0.03703   1.88740
    A9        1.99567  -0.01125   0.00000  -0.01208  -0.01211   1.98355
   A10        2.39893  -0.01058   0.00000  -0.00984  -0.00987   2.38906
   A11        1.86613  -0.01047   0.00000  -0.00257  -0.00236   1.86377
   A12        2.32571  -0.00274   0.00000  -0.02364  -0.02389   2.30182
   A13        2.08750   0.01355   0.00000   0.02829   0.02804   2.11555
    D1        0.02454  -0.00128   0.00000  -0.00443  -0.00414   0.02040
    D2       -3.10475   0.00093   0.00000   0.00532   0.00518  -3.09957
    D3        3.11550  -0.00211   0.00000  -0.00762  -0.00719   3.10832
    D4       -0.01379   0.00010   0.00000   0.00213   0.00213  -0.01165
    D5        0.06619  -0.00586   0.00000  -0.03131  -0.03055   0.03564
    D6        3.10988  -0.00085   0.00000  -0.00283  -0.00274   3.10715
    D7       -3.02114  -0.00503   0.00000  -0.02838  -0.02786  -3.04899
    D8        0.02256  -0.00001   0.00000   0.00010  -0.00005   0.02251
    D9       -0.10381   0.00553   0.00000   0.03563   0.03520  -0.06861
   D10        3.02855   0.00385   0.00000   0.02823   0.02806   3.05661
   D11        0.14166  -0.00531   0.00000  -0.05015  -0.05089   0.09077
   D12        3.04231   0.00129   0.00000   0.00022   0.00021   3.04252
   D13       -0.12697   0.00789   0.00000   0.04876   0.04915  -0.07782
   D14        3.09660   0.00454   0.00000   0.02809   0.02818   3.12477
   D15       -2.94125  -0.00342   0.00000  -0.02262  -0.02247  -2.96373
   D16        0.28231  -0.00677   0.00000  -0.04329  -0.04344   0.23886
         Item               Value     Threshold  Converged?
 Maximum Force            0.194767     0.000450     NO 
 RMS     Force            0.040090     0.000300     NO 
 Maximum Displacement     0.119908     0.001800     NO 
 RMS     Displacement     0.047281     0.001200     NO 
 Predicted change in Energy=-4.875257D-02
 Lowest energy point so far.  Saving SCF results.
 GradGradGradGradGradGradGradGradGradGradGradGradGradGradGradGradGradGrad

 Leave Link  103 at Thu Mar 17 08:41:08 2016, MaxMem=    33554432 cpu:         0.0
 (Enter /opt/g09/g09/l202.exe)
                          Input orientation:                          
 ---------------------------------------------------------------------
 Center     Atomic      Atomic             Coordinates (Angstroms)
 Number     Number       Type             X           Y           Z
 ---------------------------------------------------------------------
      1          6           0        0.975594   -0.702828   -0.022759
      2          6           0       -0.355414   -1.133673    0.013507
      3          8           0       -1.182911   -0.001578    0.018300
      4          6           0       -0.345380    1.138023    0.077032
      5          6           0        1.003974    0.700710   -0.014140
      6          1           0        1.832933    1.414354   -0.005670
      7          1           0       -0.873673    2.063684   -0.011251
      8          1           0       -0.874334   -2.080330    0.053550
      9          1           0        1.840714   -1.402775   -0.002850
 ---------------------------------------------------------------------
                    Distance matrix (angstroms):
                    1          2          3          4          5
     1  C    0.000000
     2  C    1.399473   0.000000
     3  O    2.269929   1.402288   0.000000
     4  C    2.267964   2.272607   1.415485   0.000000
     5  C    1.403851   2.283344   2.297112   1.421376   0.000000
     6  H    2.284246   3.358820   3.331779   2.197327   1.093862
     7  H    3.327688   3.239181   2.088494   1.069455   2.320186
     8  H    2.307719   1.080296   2.101826   3.261617   3.356606
     9  H    1.112994   2.212615   3.332582   3.352767   2.263826
                    6          7          8          9
     6  H    0.000000
     7  H    2.783412   0.000000
     8  H    4.421043   4.144520   0.000000
     9  H    2.817141   4.402761   2.798883   0.000000
 Stoichiometry    C4H4O
 Framework group  C1[X(C4H4O)]
 Deg. of freedom    21
 Full point group                 C1      NOp   1
 RotChk:  IX=0 Diff= 2.02D-01
 Largest Abelian subgroup         C1      NOp   1
 Largest concise Abelian subgroup C1      NOp   1
                         Standard orientation:                         
 ---------------------------------------------------------------------
 Center     Atomic      Atomic             Coordinates (Angstroms)
 Number     Number       Type             X           Y           Z
 ---------------------------------------------------------------------
      1          6           0        0.542042    1.070374   -0.010812
      2          6           0        1.175796   -0.177291    0.003788
      3          8           0        0.187283   -1.171648   -0.018743
      4          6           0       -1.069807   -0.524145    0.045007
      5          6           0       -0.848643    0.878614   -0.015535
      6          1           0       -1.683362    1.585345    0.002014
      7          1           0       -1.900678   -1.188815   -0.062707
      8          1           0        2.191758   -0.542418    0.043085
      9          1           0        1.097692    2.033754    0.032870
 ---------------------------------------------------------------------
 Rotational constants (GHZ):      9.1204988      8.8216952      4.4874882
 Leave Link  202 at Thu Mar 17 08:41:08 2016, MaxMem=    33554432 cpu:         0.0
 (Enter /opt/g09/g09/l301.exe)

 Semi-emprical parameters in input format:
 Method=8 CoreType=1 PeptideFC=0.0114505045 RIJScale=0.5291772086
 ****
 H       
 PQN=1 NValence=1 F0ss=0.4721553327 ZetaOverlap=1.1880780000 U=-0.4188110042
 Beta=-0.2268825074 CoreKO=1.0589197790 KON=0,0,0,1.0647631153 KON=1,0,1,1.1401254790
 KON=0,1,1,0.9732638814 KON=2,1,1,1.0589197790 EISol=-0.4188110042 EHeat=0.0830298228
 Alpha=1.5865495725
 GCore=0.0084439869,1.4001425905,2.2676713595
 GCore=0.0003568368,1.2713995568,3.4015070392
 GCore=-0.0011601096,0.5600570362,4.0700853433
 ****
 C       
 PQN=2,2 NValence=4 F0ss=0.4494442496 F0sp=0.4215147623 F0pp=0.3768030831 F2pp=0.2046882875
 G1sp=0.2481533461
 ZetaOverlap=1.7655688186,1.6851160000
 U=-1.8824233337,-1.4557965594
 Beta=-0.5484703939,-0.2836784428 DDN=0,1,0.8236736000 DDN=1,1,0.7268015000
 CoreKO=1.1124284736 KON=0,0,0,1.1806077266 KON=1,0,1,0.8974706024 KON=0,1,1,1.0539723197
 KON=2,1,1,0.7783928119 EISol=-4.4398989268 EHeat=0.2723305520 Alpha=1.4014062429
 DipHyp=1.6472524267
 GCore=0.0007885612,1.4001425905,3.0235618126
 GCore=0.0031892455,1.3035296846,3.4959933458
 GCore=-0.0013931594,1.4001425905,3.5039447890
 GCore=-0.0000875022,1.4001425905,4.5400993048
 ****
 O       
 PQN=2,2 NValence=6 F0ss=0.5178706425 F0sp=0.5193533485 F0pp=0.4958708974 F2pp=0.2563824545
 G1sp=0.4343770262
 ZetaOverlap=2.8500385664,2.5240390000
 U=-3.5951865036,-2.8760896690
 Beta=-1.0757546603,-1.0757546603 DDN=0,1,0.5276493399 DDN=1,1,0.4852322000
 CoreKO=0.8822957477 KON=0,0,0,0.8822957477 KON=1,0,1,0.5019543089 KON=0,1,1,0.8822957477
 KON=2,1,1,0.5515584117 EISol=-11.6164441184 EHeat=0.0949133088 Alpha=2.3576807890
 DipHyp=1.0552379675
 GCore=0.0204988524,1.4001425905,1.6023328031
 GCore=0.0059413965,1.9601996266,2.7307884326
 ****
 
 Standard basis: VSTO-6G (5D, 7F)
 Ernie: Thresh=  0.10000D-02 Tol=  0.10000D-05 Strict=F.
  NNHCO=     0 NNPyr=     0 NCTC=     0               EPep=         0.000000000
    EC=        67.675913016  ECS=         1.638682737   EG=         0.347778262
   EHC=         0.000000000  EAt=       -31.051283842  AtH=         1.516354808
 EPDDG=         0.000000000  ECC=        69.662374016 EAtT=        32.567638650
 There are    24 symmetry adapted cartesian basis functions of A   symmetry.
 There are    24 symmetry adapted basis functions of A   symmetry.
    24 basis functions,   144 primitive gaussians,    24 cartesian basis functions
    13 alpha electrons       13 beta electrons
       nuclear repulsion energy       102.2300126660 Hartrees.
 IExCor=    0 DFT=F Ex=HF Corr=None ExCW=0 ScaHFX=  1.000000
 ScaDFX=  1.000000  1.000000  1.000000  1.000000 ScalE2=  1.000000  1.000000
 IRadAn=      0 IRanWt=     -1 IRanGd=            0 ICorTp=0 IEmpDi=  4
 Integral buffers will be    131072 words long.
 Regular integral format.
 Two-electron integral symmetry is turned off.
 Leave Link  301 at Thu Mar 17 08:41:08 2016, MaxMem=    33554432 cpu:         0.0
 (Enter /opt/g09/g09/l302.exe)
 Do NDO integrals.
 NPDir=0 NMtPBC=     1 NCelOv=     1 NCel=       1 NClECP=     1 NCelD=      1
         NCelK=      1 NCelE2=     1 NClLst=     1 CellRange=     0.0.
 One-electron integrals computed using PRISM.
 NBasis=    24 RedAO= F EigKep=  0.00D+00  NBF=    24
 NBsUse=    24 1.00D-04 EigRej=  0.00D+00 NBFU=    24
 Leave Link  302 at Thu Mar 17 08:41:08 2016, MaxMem=    33554432 cpu:         0.0
 (Enter /opt/g09/g09/l303.exe)
 DipDrv:  MaxL=1.
 Leave Link  303 at Thu Mar 17 08:41:08 2016, MaxMem=    33554432 cpu:         0.0
 (Enter /opt/g09/g09/l401.exe)
 Initial guess from the checkpoint file:  "/opt/g09/scratch/Gau-7694.chk"
 B after Tr=     0.000000    0.000000    0.000000
         Rot=    0.997416   -0.000166   -0.000145    0.071846 Ang=  -8.24 deg.
 Guess basis will be translated and rotated to current coordinates.
 JPrj=0 DoOrth=T DoCkMO=T.
 Leave Link  401 at Thu Mar 17 08:41:08 2016, MaxMem=    33554432 cpu:         0.0
 (Enter /opt/g09/g09/l502.exe)
 Closed shell SCF:
 Using DIIS extrapolation, IDIIS=  1040.
 Overlap will be assumed to be unity.
 Two-electron integral symmetry not used.
 Keep J ints in memory in canonical form, NReq=888082.
 IVT=       79475 IEndB=       79475 NGot=    33554432 MDV=    33473473
 LenX=    33473473 LenY=    33472456
 Requested convergence on RMS density matrix=1.00D-08 within 128 cycles.
 Requested convergence on MAX density matrix=1.00D-06.
 Requested convergence on             energy=1.00D-06.
 No special actions if energy rises.
 FoFCou: FMM=F IPFlag=           0 FMFlag=           0 FMFlg1=           0
         NFxFlg=           0 DoJE=F BraDBF=F KetDBF=F FulRan=T
         wScrn=  0.000000 ICntrl=     600 IOpCl=  2 I1Cent=           0 NGrid=           0
         NMat0=    1 NMatS0=     54 NMatT0=    0 NMatD0=    1 NMtDS0=    0 NMtDT0=    0
 Symmetry not used in FoFCou.

 Cycle   1  Pass 1  IDiag  1:
 E= 0.659393492047968E-01
 DIIS: error= 6.63D-03 at cycle   1 NSaved=   1.
 NSaved= 1 IEnMin= 1 EnMin= 0.659393492047968E-01 IErMin= 1 ErrMin= 6.63D-03
 ErrMax= 6.63D-03  0.00D+00 EMaxC= 1.00D-01 BMatC= 2.33D-03 BMatP= 2.33D-03
 IDIUse=3 WtCom= 9.34D-01 WtEn= 6.63D-02
 Coeff-Com:  0.100D+01
 Coeff-En:   0.100D+01
 Coeff:      0.100D+01
 GapD=    2.000 DampG=2.000 DampE=1.000 DampFc=2.0000 IDamp=-1.
 RMSDP=3.02D-03 MaxDP=1.28D-02              OVMax= 0.00D+00

 Cycle   2  Pass 1  IDiag  3:
 E= 0.597589328400971E-01 Delta-E=       -0.006180416365 Rises=F Damp=F
 DIIS: error= 1.98D-03 at cycle   2 NSaved=   2.
 NSaved= 2 IEnMin= 2 EnMin= 0.597589328400971E-01 IErMin= 2 ErrMin= 1.98D-03
 ErrMax= 1.98D-03  0.00D+00 EMaxC= 1.00D-01 BMatC= 2.20D-04 BMatP= 2.33D-03
 IDIUse=3 WtCom= 9.80D-01 WtEn= 1.98D-02
 Coeff-Com: -0.381D+00 0.138D+01
 Coeff-En:   0.000D+00 0.100D+01
 Coeff:     -0.373D+00 0.137D+01
 Gap=     0.355 Goal=   None    Shift=    0.000
 RMSDP=1.59D-03 MaxDP=7.46D-03 DE=-6.18D-03 OVMax= 9.33D-03

 Cycle   3  Pass 1  IDiag  3:
 E= 0.588686194927703E-01 Delta-E=       -0.000890313347 Rises=F Damp=F
 DIIS: error= 6.03D-04 at cycle   3 NSaved=   3.
 NSaved= 3 IEnMin= 3 EnMin= 0.588686194927703E-01 IErMin= 3 ErrMin= 6.03D-04
 ErrMax= 6.03D-04  0.00D+00 EMaxC= 1.00D-01 BMatC= 9.67D-06 BMatP= 2.20D-04
 IDIUse=3 WtCom= 9.94D-01 WtEn= 6.03D-03
 Coeff-Com:  0.184D+00-0.750D+00 0.157D+01
 Coeff-En:   0.000D+00 0.000D+00 0.100D+01
 Coeff:      0.182D+00-0.745D+00 0.156D+01
 Gap=     0.355 Goal=   None    Shift=    0.000
 RMSDP=5.96D-04 MaxDP=4.40D-03 DE=-8.90D-04 OVMax= 5.61D-03

 Cycle   4  Pass 1  IDiag  3:
 E= 0.587904722704451E-01 Delta-E=       -0.000078147222 Rises=F Damp=F
 DIIS: error= 2.37D-04 at cycle   4 NSaved=   4.
 NSaved= 4 IEnMin= 4 EnMin= 0.587904722704451E-01 IErMin= 4 ErrMin= 2.37D-04
 ErrMax= 2.37D-04  0.00D+00 EMaxC= 1.00D-01 BMatC= 9.79D-07 BMatP= 9.67D-06
 IDIUse=3 WtCom= 9.98D-01 WtEn= 2.37D-03
 Coeff-Com: -0.819D-01 0.347D+00-0.949D+00 0.168D+01
 Coeff-En:   0.000D+00 0.000D+00 0.000D+00 0.100D+01
 Coeff:     -0.817D-01 0.346D+00-0.947D+00 0.168D+01
 Gap=     0.355 Goal=   None    Shift=    0.000
 RMSDP=2.55D-04 MaxDP=2.18D-03 DE=-7.81D-05 OVMax= 2.81D-03

 Cycle   5  Pass 1  IDiag  3:
 E= 0.587803531950328E-01 Delta-E=       -0.000010119075 Rises=F Damp=F
 DIIS: error= 6.11D-05 at cycle   5 NSaved=   5.
 NSaved= 5 IEnMin= 5 EnMin= 0.587803531950328E-01 IErMin= 5 ErrMin= 6.11D-05
 ErrMax= 6.11D-05  0.00D+00 EMaxC= 1.00D-01 BMatC= 6.68D-08 BMatP= 9.79D-07
 IDIUse=1 WtCom= 1.00D+00 WtEn= 0.00D+00
 Coeff-Com:  0.228D-02-0.113D-01 0.759D-01-0.404D+00 0.134D+01
 Coeff:      0.228D-02-0.113D-01 0.759D-01-0.404D+00 0.134D+01
 Gap=     0.355 Goal=   None    Shift=    0.000
 RMSDP=6.67D-05 MaxDP=5.95D-04 DE=-1.01D-05 OVMax= 7.79D-04

 Cycle   6  Pass 1  IDiag  3:
 E= 0.587796843876305E-01 Delta-E=       -0.000000668807 Rises=F Damp=F
 DIIS: error= 1.51D-05 at cycle   6 NSaved=   6.
 NSaved= 6 IEnMin= 6 EnMin= 0.587796843876305E-01 IErMin= 6 ErrMin= 1.51D-05
 ErrMax= 1.51D-05  0.00D+00 EMaxC= 1.00D-01 BMatC= 6.43D-09 BMatP= 6.68D-08
 IDIUse=1 WtCom= 1.00D+00 WtEn= 0.00D+00
 Coeff-Com:  0.700D-02-0.288D-01 0.542D-01 0.390D-01-0.633D+00 0.156D+01
 Coeff:      0.700D-02-0.288D-01 0.542D-01 0.390D-01-0.633D+00 0.156D+01
 Gap=     0.355 Goal=   None    Shift=    0.000
 RMSDP=1.91D-05 MaxDP=1.60D-04 DE=-6.69D-07 OVMax= 2.17D-04

 Cycle   7  Pass 1  IDiag  3:
 E= 0.587796283582804E-01 Delta-E=       -0.000000056029 Rises=F Damp=F
 DIIS: error= 2.75D-06 at cycle   7 NSaved=   7.
 NSaved= 7 IEnMin= 7 EnMin= 0.587796283582804E-01 IErMin= 7 ErrMin= 2.75D-06
 ErrMax= 2.75D-06  0.00D+00 EMaxC= 1.00D-01 BMatC= 3.59D-10 BMatP= 6.43D-09
 IDIUse=1 WtCom= 1.00D+00 WtEn= 0.00D+00
 Coeff-Com: -0.319D-02 0.131D-01-0.259D-01-0.826D-02 0.259D+00-0.801D+00
 Coeff-Com:  0.157D+01
 Coeff:     -0.319D-02 0.131D-01-0.259D-01-0.826D-02 0.259D+00-0.801D+00
 Coeff:      0.157D+01
 Gap=     0.355 Goal=   None    Shift=    0.000
 RMSDP=4.31D-06 MaxDP=2.98D-05 DE=-5.60D-08 OVMax= 4.47D-05

 Cycle   8  Pass 1  IDiag  3:
 E= 0.587796254065580E-01 Delta-E=       -0.000000002952 Rises=F Damp=F
 DIIS: error= 5.18D-07 at cycle   8 NSaved=   8.
 NSaved= 8 IEnMin= 8 EnMin= 0.587796254065580E-01 IErMin= 8 ErrMin= 5.18D-07
 ErrMax= 5.18D-07  0.00D+00 EMaxC= 1.00D-01 BMatC= 1.48D-11 BMatP= 3.59D-10
 IDIUse=1 WtCom= 1.00D+00 WtEn= 0.00D+00
 Coeff-Com:  0.976D-03-0.398D-02 0.788D-02 0.250D-02-0.797D-01 0.259D+00
 Coeff-Com: -0.650D+00 0.146D+01
 Coeff:      0.976D-03-0.398D-02 0.788D-02 0.250D-02-0.797D-01 0.259D+00
 Coeff:     -0.650D+00 0.146D+01
 Gap=     0.355 Goal=   None    Shift=    0.000
 RMSDP=7.84D-07 MaxDP=4.04D-06 DE=-2.95D-09 OVMax= 6.05D-06

 Cycle   9  Pass 1  IDiag  3:
 E= 0.587796252963102E-01 Delta-E=       -0.000000000110 Rises=F Damp=F
 DIIS: error= 1.17D-07 at cycle   9 NSaved=   9.
 NSaved= 9 IEnMin= 9 EnMin= 0.587796252963102E-01 IErMin= 9 ErrMin= 1.17D-07
 ErrMax= 1.17D-07  0.00D+00 EMaxC= 1.00D-01 BMatC= 7.43D-13 BMatP= 1.48D-11
 IDIUse=1 WtCom= 1.00D+00 WtEn= 0.00D+00
 Coeff-Com: -0.312D-03 0.126D-02-0.246D-02-0.103D-02 0.264D-01-0.877D-01
 Coeff-Com:  0.241D+00-0.703D+00 0.153D+01
 Coeff:     -0.312D-03 0.126D-02-0.246D-02-0.103D-02 0.264D-01-0.877D-01
 Coeff:      0.241D+00-0.703D+00 0.153D+01
 Gap=     0.355 Goal=   None    Shift=    0.000
 RMSDP=1.64D-07 MaxDP=7.27D-07 DE=-1.10D-10 OVMax= 1.04D-06

 Cycle  10  Pass 1  IDiag  3:
 E= 0.587796252911517E-01 Delta-E=       -0.000000000005 Rises=F Damp=F
 DIIS: error= 2.48D-08 at cycle  10 NSaved=  10.
 NSaved=10 IEnMin=10 EnMin= 0.587796252911517E-01 IErMin=10 ErrMin= 2.48D-08
 ErrMax= 2.48D-08  0.00D+00 EMaxC= 1.00D-01 BMatC= 3.08D-14 BMatP= 7.43D-13
 IDIUse=1 WtCom= 1.00D+00 WtEn= 0.00D+00
 Coeff-Com:  0.722D-04-0.288D-03 0.525D-03 0.483D-03-0.719D-02 0.236D-01
 Coeff-Com: -0.672D-01 0.213D+00-0.596D+00 0.143D+01
 Coeff:      0.722D-04-0.288D-03 0.525D-03 0.483D-03-0.719D-02 0.236D-01
 Coeff:     -0.672D-01 0.213D+00-0.596D+00 0.143D+01
 Gap=     0.355 Goal=   None    Shift=    0.000
 RMSDP=3.18D-08 MaxDP=1.63D-07 DE=-5.16D-12 OVMax= 2.22D-07

 Cycle  11  Pass 1  IDiag  3:
 E= 0.587796252908106E-01 Delta-E=        0.000000000000 Rises=F Damp=F
 DIIS: error= 5.01D-09 at cycle  11 NSaved=  11.
 NSaved=11 IEnMin=11 EnMin= 0.587796252908106E-01 IErMin=11 ErrMin= 5.01D-09
 ErrMax= 5.01D-09  0.00D+00 EMaxC= 1.00D-01 BMatC= 1.76D-15 BMatP= 3.08D-14
 IDIUse=1 WtCom= 1.00D+00 WtEn= 0.00D+00
 Coeff-Com: -0.202D-04 0.793D-04-0.133D-03-0.206D-03 0.231D-02-0.742D-02
 Coeff-Com:  0.213D-01-0.677D-01 0.201D+00-0.640D+00 0.149D+01
 Coeff:     -0.202D-04 0.793D-04-0.133D-03-0.206D-03 0.231D-02-0.742D-02
 Coeff:      0.213D-01-0.677D-01 0.201D+00-0.640D+00 0.149D+01
 Gap=     0.355 Goal=   None    Shift=    0.000
 RMSDP=7.82D-09 MaxDP=3.52D-08 DE=-3.41D-13 OVMax= 4.80D-08

 Cycle  12  Pass 2  IDiag  1:
 SCF Done:  E(RAM1) =  0.587796252908E-01 A.U. after   12 cycles
            NFock= 11  Conv=0.78D-08     -V/T= 1.0036
 KE=-1.651330668902D+01 PE=-1.690653426122D+02 EE= 8.340741626044D+01
 Leave Link  502 at Thu Mar 17 08:41:08 2016, MaxMem=    33554432 cpu:         0.0
 (Enter /opt/g09/g09/l701.exe)
 Compute integral first derivatives.
 ... and contract with generalized density number  0.
 Leave Link  701 at Thu Mar 17 08:41:08 2016, MaxMem=    33554432 cpu:         0.0
 (Enter /opt/g09/g09/l702.exe)
 L702 exits ... SP integral derivatives will be done elsewhere.
 Leave Link  702 at Thu Mar 17 08:41:08 2016, MaxMem=    33554432 cpu:         0.0
 (Enter /opt/g09/g09/l703.exe)
 Compute integral first derivatives, UseDBF=F ICtDFT=           0.
 Integral derivatives from FoFJK, PRISM(SPDF).
 Calling FoFJK, ICntrl=      2127 FMM=F ISym2X=0 I1Cent= 0 IOpClX= 0 NMat=1 NMatS=1 NMatT=0.
 FoFJK:  IHMeth= 8 ICntrl=    2127 DoSepK=F KAlg= 0 I1Cent=   0 FoldK=F
 IRaf=         0 NMat=   1 IRICut=       1 DoRegI=T DoRafI=F ISym2E= 0.
 FoFCou: FMM=F IPFlag=           0 FMFlag=      100000 FMFlg1=         800
         NFxFlg=           0 DoJE=F BraDBF=F KetDBF=F FulRan=T
         wScrn=  0.000000 ICntrl=    2127 IOpCl=  0 I1Cent=           0 NGrid=           0
         NMat0=    1 NMatS0=      1 NMatT0=    0 NMatD0=    1 NMtDS0=    0 NMtDT0=    0
 Symmetry not used in FoFCou.
 Leave Link  703 at Thu Mar 17 08:41:08 2016, MaxMem=    33554432 cpu:         0.0
 (Enter /opt/g09/g09/l716.exe)
 Dipole        =-4.45003255D-02 3.34846433D-01 5.35602628D-03
 ***** Axes restored to original set *****
 -------------------------------------------------------------------
 Center     Atomic                   Forces (Hartrees/Bohr)
 Number     Number              X              Y              Z
 -------------------------------------------------------------------
      1        6           0.020131262   -0.066999056    0.002800072
      2        6          -0.000895790    0.011803697   -0.001277889
      3        8           0.005724005    0.007153591    0.007927141
      4        6           0.012458994   -0.028744265   -0.019285671
      5        6          -0.020366196    0.065480072    0.010190472
      6        1          -0.003199230   -0.012476169   -0.001185398
      7        1          -0.000935645    0.004885077    0.004641708
      8        1           0.001560446    0.002917904   -0.001317491
      9        1          -0.014477845    0.015979148   -0.002492945
 -------------------------------------------------------------------
 Cartesian Forces:  Max     0.066999056 RMS     0.021123628
 Leave Link  716 at Thu Mar 17 08:41:08 2016, MaxMem=    33554432 cpu:         0.0
 (Enter /opt/g09/g09/l103.exe)

 GradGradGradGradGradGradGradGradGradGradGradGradGradGradGradGradGradGrad
 Berny optimization.
 Using GEDIIS/GDIIS optimizer.
 FormGI is forming the generalized inverse of G from B-inverse, IUseBI=4.
 Internal  Forces:  Max     0.038936912 RMS     0.009289332
 Search for a local minimum.
 Step number   2 out of a maximum of   48
 All quantities printed in internal units (Hartrees-Bohrs-Radians)
 RMS Force = .92893D-02 SwitMx=.10000D-02 MixMth= 1
 Mixed Optimization -- RFO/linear search
 Update second derivatives using D2CorX and points    1    2
 DE= -4.09D-02 DEPred=-4.88D-02 R= 8.39D-01
 TightC=F SS=  1.41D+00  RLast= 3.19D-01 DXNew= 5.0454D-01 9.5755D-01
 Trust test= 8.39D-01 RLast= 3.19D-01 DXMaxT set to 5.05D-01
 ITU=  1  0
 Use linear search instead of GDIIS.
     Eigenvalues ---    0.02088   0.02301   0.02799   0.02938   0.03002
     Eigenvalues ---    0.03297   0.15588   0.15792   0.15958   0.15997
     Eigenvalues ---    0.21911   0.22768   0.27412   0.32289   0.35843
     Eigenvalues ---    0.39182   0.41581   0.44420   0.50863   0.59368
     Eigenvalues ---    0.82096
 RFO step:  Lambda=-1.10643203D-02 EMin= 2.08767010D-02
 Quartic linear search produced a step of  0.22425.
 Iteration  1 RMS(Cart)=  0.03335738 RMS(Int)=  0.00290716
 Iteration  2 RMS(Cart)=  0.00216991 RMS(Int)=  0.00201969
 Iteration  3 RMS(Cart)=  0.00000254 RMS(Int)=  0.00201969
 Iteration  4 RMS(Cart)=  0.00000000 RMS(Int)=  0.00201969
 ITry= 1 IFail=0 DXMaxC= 1.13D-01 DCOld= 1.00D+10 DXMaxT= 5.05D-01 DXLimC= 3.00D+00 Rises=F
 Variable       Old X    -DE/DX   Delta X   Delta X   Delta X     New X
                                 (Linear)    (Quad)   (Total)
    R1        2.64462  -0.00499   0.02817  -0.03013  -0.00229   2.64233
    R2        2.65289   0.03894   0.04726   0.03061   0.07810   2.73100
    R3        2.10325  -0.02135  -0.01801  -0.07345  -0.09146   2.01179
    R4        2.64994  -0.00266   0.01666  -0.02333  -0.00709   2.64285
    R5        2.04146  -0.00336  -0.00036  -0.01074  -0.01110   2.03037
    R6        2.67488  -0.01122   0.00607  -0.04212  -0.03600   2.63888
    R7        2.68601  -0.02055   0.01357  -0.06432  -0.05028   2.63573
    R8        2.02098   0.00431   0.00626   0.00765   0.01390   2.03488
    R9        2.06710  -0.01057  -0.00731  -0.03211  -0.03942   2.02768
    A1        1.90378  -0.01281  -0.01517  -0.03099  -0.04722   1.85656
    A2        2.14741   0.00986   0.00995   0.03833   0.04879   2.19621
    A3        2.23055   0.00296   0.00517  -0.00675  -0.00106   2.22949
    A4        1.88892   0.00421   0.00649   0.02305   0.02785   1.91676
    A5        2.38560  -0.00210  -0.00324  -0.01163  -0.01407   2.37152
    A6        2.00851  -0.00211  -0.00328  -0.01170  -0.01422   1.99428
    A7        1.87649   0.00367   0.00245  -0.00828  -0.00776   1.86873
    A8        1.88740   0.00699   0.00830   0.02432   0.02571   1.91311
    A9        1.98355  -0.00216  -0.00272   0.01292   0.00404   1.98759
   A10        2.38906  -0.00364  -0.00221   0.00159  -0.00682   2.38224
   A11        1.86377  -0.00165  -0.00053   0.00538   0.00389   1.86766
   A12        2.30182  -0.00683  -0.00536  -0.05115  -0.05699   2.24483
   A13        2.11555   0.00859   0.00629   0.04933   0.05515   2.17070
    D1        0.02040  -0.00037  -0.00093  -0.02187  -0.02339  -0.00299
    D2       -3.09957  -0.00003   0.00116  -0.00427  -0.00359  -3.10316
    D3        3.10832  -0.00016  -0.00161  -0.01133  -0.01312   3.09520
    D4       -0.01165   0.00018   0.00048   0.00627   0.00669  -0.00497
    D5        0.03564  -0.00226  -0.00685  -0.06288  -0.06843  -0.03279
    D6        3.10715   0.00005  -0.00061   0.00067  -0.00113   3.10601
    D7       -3.04899  -0.00271  -0.00625  -0.07578  -0.08089  -3.12988
    D8        0.02251  -0.00040  -0.00001  -0.01223  -0.01359   0.00892
    D9       -0.06861   0.00272   0.00789   0.09883   0.10619   0.03759
   D10        3.05661   0.00244   0.00629   0.08538   0.09094  -3.13564
   D11        0.09077  -0.00359  -0.01141  -0.13718  -0.14969  -0.05892
   D12        3.04252   0.00072   0.00005   0.01922   0.02040   3.06292
   D13       -0.07782   0.00374   0.01102   0.12238   0.13486   0.05704
   D14        3.12477   0.00243   0.00632   0.07173   0.07650  -3.08191
   D15       -2.96373  -0.00289  -0.00504  -0.09141  -0.09458  -3.05831
   D16        0.23886  -0.00420  -0.00974  -0.14206  -0.15294   0.08593
         Item               Value     Threshold  Converged?
 Maximum Force            0.038937     0.000450     NO 
 RMS     Force            0.009289     0.000300     NO 
 Maximum Displacement     0.112755     0.001800     NO 
 RMS     Displacement     0.033514     0.001200     NO 
 Predicted change in Energy=-6.029643D-03
 Lowest energy point so far.  Saving SCF results.
 GradGradGradGradGradGradGradGradGradGradGradGradGradGradGradGradGradGrad

 Leave Link  103 at Thu Mar 17 08:41:08 2016, MaxMem=    33554432 cpu:         0.0
 (Enter /opt/g09/g09/l202.exe)
                          Input orientation:                          
 ---------------------------------------------------------------------
 Center     Atomic      Atomic             Coordinates (Angstroms)
 Number     Number       Type             X           Y           Z
 ---------------------------------------------------------------------
      1          6           0        0.991427   -0.728105   -0.021928
      2          6           0       -0.348855   -1.124676    0.016998
      3          8           0       -1.175430    0.002116    0.071957
      4          6           0       -0.344499    1.123098    0.017365
      5          6           0        0.989733    0.716794    0.006595
      6          1           0        1.827298    1.387336    0.020441
      7          1           0       -0.876443    2.058398   -0.024762
      8          1           0       -0.875751   -2.060596    0.045702
      9          1           0        1.834023   -1.378777   -0.026649
 ---------------------------------------------------------------------
                    Distance matrix (angstroms):
                    1          2          3          4          5
     1  C    0.000000
     2  C    1.398263   0.000000
     3  O    2.288516   1.398537   0.000000
     4  C    2.283242   2.247778   1.396434   0.000000
     5  C    1.445182   2.276606   2.281002   1.394767   0.000000
     6  H    2.274988   3.323531   3.307244   2.187815   1.073002
     7  H    3.354630   3.226770   2.080154   1.076812   2.298586
     8  H    2.294877   1.074425   2.084532   3.227837   3.345961
     9  H    1.064596   2.198052   3.312612   3.317721   2.259502
                    6          7          8          9
     6  H    0.000000
     7  H    2.786140   0.000000
     8  H    4.381249   4.119596   0.000000
     9  H    2.766522   4.377305   2.795172   0.000000
 Stoichiometry    C4H4O
 Framework group  C1[X(C4H4O)]
 Deg. of freedom    21
 Full point group                 C1      NOp   1
 RotChk:  IX=2 Diff= 2.88D-01
 Largest Abelian subgroup         C1      NOp   1
 Largest concise Abelian subgroup C1      NOp   1
                         Standard orientation:                         
 ---------------------------------------------------------------------
 Center     Atomic      Atomic             Coordinates (Angstroms)
 Number     Number       Type             X           Y           Z
 ---------------------------------------------------------------------
      1          6           0        0.771607    0.950928   -0.013990
      2          6           0        1.105491   -0.406883   -0.010550
      3          8           0       -0.058562   -1.181425    0.020592
      4          6           0       -1.139655   -0.298180   -0.013214
      5          6           0       -0.671886    1.015558    0.012453
      6          1           0       -1.302900    1.882681    0.047869
      7          1           0       -2.098503   -0.784805   -0.070934
      8          1           0        2.015890   -0.977244    0.005291
      9          1           0        1.460665    1.762229    0.004851
 ---------------------------------------------------------------------
 Rotational constants (GHZ):      9.1455832      8.8839706      4.5081502
 Leave Link  202 at Thu Mar 17 08:41:08 2016, MaxMem=    33554432 cpu:         0.0
 (Enter /opt/g09/g09/l301.exe)

 Semi-emprical parameters in input format:
 Method=8 CoreType=1 PeptideFC=0.0114505045 RIJScale=0.5291772086
 ****
 H       
 PQN=1 NValence=1 F0ss=0.4721553327 ZetaOverlap=1.1880780000 U=-0.4188110042
 Beta=-0.2268825074 CoreKO=1.0589197790 KON=0,0,0,1.0647631153 KON=1,0,1,1.1401254790
 KON=0,1,1,0.9732638814 KON=2,1,1,1.0589197790 EISol=-0.4188110042 EHeat=0.0830298228
 Alpha=1.5865495725
 GCore=0.0084439869,1.4001425905,2.2676713595
 GCore=0.0003568368,1.2713995568,3.4015070392
 GCore=-0.0011601096,0.5600570362,4.0700853433
 ****
 C       
 PQN=2,2 NValence=4 F0ss=0.4494442496 F0sp=0.4215147623 F0pp=0.3768030831 F2pp=0.2046882875
 G1sp=0.2481533461
 ZetaOverlap=1.7655688186,1.6851160000
 U=-1.8824233337,-1.4557965594
 Beta=-0.5484703939,-0.2836784428 DDN=0,1,0.8236736000 DDN=1,1,0.7268015000
 CoreKO=1.1124284736 KON=0,0,0,1.1806077266 KON=1,0,1,0.8974706024 KON=0,1,1,1.0539723197
 KON=2,1,1,0.7783928119 EISol=-4.4398989268 EHeat=0.2723305520 Alpha=1.4014062429
 DipHyp=1.6472524267
 GCore=0.0007885612,1.4001425905,3.0235618126
 GCore=0.0031892455,1.3035296846,3.4959933458
 GCore=-0.0013931594,1.4001425905,3.5039447890
 GCore=-0.0000875022,1.4001425905,4.5400993048
 ****
 O       
 PQN=2,2 NValence=6 F0ss=0.5178706425 F0sp=0.5193533485 F0pp=0.4958708974 F2pp=0.2563824545
 G1sp=0.4343770262
 ZetaOverlap=2.8500385664,2.5240390000
 U=-3.5951865036,-2.8760896690
 Beta=-1.0757546603,-1.0757546603 DDN=0,1,0.5276493399 DDN=1,1,0.4852322000
 CoreKO=0.8822957477 KON=0,0,0,0.8822957477 KON=1,0,1,0.5019543089 KON=0,1,1,0.8822957477
 KON=2,1,1,0.5515584117 EISol=-11.6164441184 EHeat=0.0949133088 Alpha=2.3576807890
 DipHyp=1.0552379675
 GCore=0.0204988524,1.4001425905,1.6023328031
 GCore=0.0059413965,1.9601996266,2.7307884326
 ****
 
 Standard basis: VSTO-6G (5D, 7F)
 Ernie: Thresh=  0.10000D-02 Tol=  0.10000D-05 Strict=F.
  NNHCO=     0 NNPyr=     0 NCTC=     0               EPep=         0.000000000
    EC=        67.846476104  ECS=         1.674170775   EG=         0.353837359
   EHC=         0.000000000  EAt=       -31.051283842  AtH=         1.516354808
 EPDDG=         0.000000000  ECC=        69.874484238 EAtT=        32.567638650
 There are    24 symmetry adapted cartesian basis functions of A   symmetry.
 There are    24 symmetry adapted basis functions of A   symmetry.
    24 basis functions,   144 primitive gaussians,    24 cartesian basis functions
    13 alpha electrons       13 beta electrons
       nuclear repulsion energy       102.4421228883 Hartrees.
 IExCor=    0 DFT=F Ex=HF Corr=None ExCW=0 ScaHFX=  1.000000
 ScaDFX=  1.000000  1.000000  1.000000  1.000000 ScalE2=  1.000000  1.000000
 IRadAn=      0 IRanWt=     -1 IRanGd=            0 ICorTp=0 IEmpDi=  4
 Integral buffers will be    131072 words long.
 Regular integral format.
 Two-electron integral symmetry is turned off.
 Leave Link  301 at Thu Mar 17 08:41:08 2016, MaxMem=    33554432 cpu:         0.0
 (Enter /opt/g09/g09/l302.exe)
 Do NDO integrals.
 NPDir=0 NMtPBC=     1 NCelOv=     1 NCel=       1 NClECP=     1 NCelD=      1
         NCelK=      1 NCelE2=     1 NClLst=     1 CellRange=     0.0.
 One-electron integrals computed using PRISM.
 NBasis=    24 RedAO= F EigKep=  0.00D+00  NBF=    24
 NBsUse=    24 1.00D-04 EigRej=  0.00D+00 NBFU=    24
 Leave Link  302 at Thu Mar 17 08:41:08 2016, MaxMem=    33554432 cpu:         0.0
 (Enter /opt/g09/g09/l303.exe)
 DipDrv:  MaxL=1.
 Leave Link  303 at Thu Mar 17 08:41:08 2016, MaxMem=    33554432 cpu:         0.0
 (Enter /opt/g09/g09/l401.exe)
 Initial guess from the checkpoint file:  "/opt/g09/scratch/Gau-7694.chk"
 B after Tr=     0.000000    0.000000    0.000000
         Rot=    0.994877   -0.000035    0.000018    0.101088 Ang= -11.60 deg.
 Guess basis will be translated and rotated to current coordinates.
 JPrj=0 DoOrth=T DoCkMO=T.
 Leave Link  401 at Thu Mar 17 08:41:08 2016, MaxMem=    33554432 cpu:         0.0
 (Enter /opt/g09/g09/l502.exe)
 Closed shell SCF:
 Using DIIS extrapolation, IDIIS=  1040.
 Overlap will be assumed to be unity.
 Two-electron integral symmetry not used.
 Keep J ints in memory in canonical form, NReq=888082.
 IVT=       79475 IEndB=       79475 NGot=    33554432 MDV=    33473473
 LenX=    33473473 LenY=    33472456
 Requested convergence on RMS density matrix=1.00D-08 within 128 cycles.
 Requested convergence on MAX density matrix=1.00D-06.
 Requested convergence on             energy=1.00D-06.
 No special actions if energy rises.
 FoFCou: FMM=F IPFlag=           0 FMFlag=           0 FMFlg1=           0
         NFxFlg=           0 DoJE=F BraDBF=F KetDBF=F FulRan=T
         wScrn=  0.000000 ICntrl=     600 IOpCl=  2 I1Cent=           0 NGrid=           0
         NMat0=    1 NMatS0=     54 NMatT0=    0 NMatD0=    1 NMtDS0=    0 NMtDT0=    0
 Symmetry not used in FoFCou.

 Cycle   1  Pass 1  IDiag  1:
 E= 0.623340465086528E-01
 DIIS: error= 9.48D-03 at cycle   1 NSaved=   1.
 NSaved= 1 IEnMin= 1 EnMin= 0.623340465086528E-01 IErMin= 1 ErrMin= 9.48D-03
 ErrMax= 9.48D-03  0.00D+00 EMaxC= 1.00D-01 BMatC= 2.28D-03 BMatP= 2.28D-03
 IDIUse=3 WtCom= 9.05D-01 WtEn= 9.48D-02
 Coeff-Com:  0.100D+01
 Coeff-En:   0.100D+01
 Coeff:      0.100D+01
 GapD=    2.000 DampG=2.000 DampE=1.000 DampFc=2.0000 IDamp=-1.
 RMSDP=3.50D-03 MaxDP=1.82D-02              OVMax= 0.00D+00

 Cycle   2  Pass 1  IDiag  3:
 E= 0.549287542115309E-01 Delta-E=       -0.007405292297 Rises=F Damp=F
 DIIS: error= 3.53D-03 at cycle   2 NSaved=   2.
 NSaved= 2 IEnMin= 2 EnMin= 0.549287542115309E-01 IErMin= 2 ErrMin= 3.53D-03
 ErrMax= 3.53D-03  0.00D+00 EMaxC= 1.00D-01 BMatC= 3.35D-04 BMatP= 2.28D-03
 IDIUse=3 WtCom= 9.65D-01 WtEn= 3.53D-02
 Coeff-Com: -0.480D+00 0.148D+01
 Coeff-En:   0.000D+00 0.100D+01
 Coeff:     -0.463D+00 0.146D+01
 Gap=     0.365 Goal=   None    Shift=    0.000
 RMSDP=2.42D-03 MaxDP=1.21D-02 DE=-7.41D-03 OVMax= 1.89D-02

 Cycle   3  Pass 1  IDiag  3:
 E= 0.531256570370147E-01 Delta-E=       -0.001803097175 Rises=F Damp=F
 DIIS: error= 7.34D-04 at cycle   3 NSaved=   3.
 NSaved= 3 IEnMin= 3 EnMin= 0.531256570370147E-01 IErMin= 3 ErrMin= 7.34D-04
 ErrMax= 7.34D-04  0.00D+00 EMaxC= 1.00D-01 BMatC= 2.35D-05 BMatP= 3.35D-04
 IDIUse=3 WtCom= 9.93D-01 WtEn= 7.34D-03
 Coeff-Com:  0.242D+00-0.925D+00 0.168D+01
 Coeff-En:   0.000D+00 0.000D+00 0.100D+01
 Coeff:      0.240D+00-0.919D+00 0.168D+01
 Gap=     0.365 Goal=   None    Shift=    0.000
 RMSDP=9.71D-04 MaxDP=4.75D-03 DE=-1.80D-03 OVMax= 7.27D-03

 Cycle   4  Pass 1  IDiag  3:
 E= 0.529496307411108E-01 Delta-E=       -0.000176026296 Rises=F Damp=F
 DIIS: error= 1.15D-04 at cycle   4 NSaved=   4.
 NSaved= 4 IEnMin= 4 EnMin= 0.529496307411108E-01 IErMin= 4 ErrMin= 1.15D-04
 ErrMax= 1.15D-04  0.00D+00 EMaxC= 1.00D-01 BMatC= 7.72D-07 BMatP= 2.35D-05
 IDIUse=3 WtCom= 9.99D-01 WtEn= 1.15D-03
 Coeff-Com: -0.743D-01 0.298D+00-0.651D+00 0.143D+01
 Coeff-En:   0.000D+00 0.000D+00 0.000D+00 0.100D+01
 Coeff:     -0.742D-01 0.297D+00-0.650D+00 0.143D+01
 Gap=     0.366 Goal=   None    Shift=    0.000
 RMSDP=1.70D-04 MaxDP=8.45D-04 DE=-1.76D-04 OVMax= 1.23D-03

 Cycle   5  Pass 1  IDiag  3:
 E= 0.529436608680385E-01 Delta-E=       -0.000005969873 Rises=F Damp=F
 DIIS: error= 3.97D-05 at cycle   5 NSaved=   5.
 NSaved= 5 IEnMin= 5 EnMin= 0.529436608680385E-01 IErMin= 5 ErrMin= 3.97D-05
 ErrMax= 3.97D-05  0.00D+00 EMaxC= 1.00D-01 BMatC= 5.97D-08 BMatP= 7.72D-07
 IDIUse=1 WtCom= 1.00D+00 WtEn= 0.00D+00
 Coeff-Com:  0.337D-02-0.161D-01 0.601D-01-0.427D+00 0.138D+01
 Coeff:      0.337D-02-0.161D-01 0.601D-01-0.427D+00 0.138D+01
 Gap=     0.366 Goal=   None    Shift=    0.000
 RMSDP=5.11D-05 MaxDP=3.27D-04 DE=-5.97D-06 OVMax= 4.21D-04

 Cycle   6  Pass 1  IDiag  3:
 E= 0.529431700390433E-01 Delta-E=       -0.000000490829 Rises=F Damp=F
 DIIS: error= 1.47D-05 at cycle   6 NSaved=   6.
 NSaved= 6 IEnMin= 6 EnMin= 0.529431700390433E-01 IErMin= 6 ErrMin= 1.47D-05
 ErrMax= 1.47D-05  0.00D+00 EMaxC= 1.00D-01 BMatC= 4.58D-09 BMatP= 5.97D-08
 IDIUse=1 WtCom= 1.00D+00 WtEn= 0.00D+00
 Coeff-Com:  0.257D-02-0.899D-02 0.757D-02 0.128D+00-0.684D+00 0.155D+01
 Coeff:      0.257D-02-0.899D-02 0.757D-02 0.128D+00-0.684D+00 0.155D+01
 Gap=     0.366 Goal=   None    Shift=    0.000
 RMSDP=1.53D-05 MaxDP=1.25D-04 DE=-4.91D-07 OVMax= 1.71D-04

 Cycle   7  Pass 1  IDiag  3:
 E= 0.529431290912612E-01 Delta-E=       -0.000000040948 Rises=F Damp=F
 DIIS: error= 4.72D-06 at cycle   7 NSaved=   7.
 NSaved= 7 IEnMin= 7 EnMin= 0.529431290912612E-01 IErMin= 7 ErrMin= 4.72D-06
 ErrMax= 4.72D-06  0.00D+00 EMaxC= 1.00D-01 BMatC= 3.66D-10 BMatP= 4.58D-09
 IDIUse=1 WtCom= 1.00D+00 WtEn= 0.00D+00
 Coeff-Com: -0.221D-02 0.816D-02-0.120D-01-0.408D-01 0.302D+00-0.910D+00
 Coeff-Com:  0.166D+01
 Coeff:     -0.221D-02 0.816D-02-0.120D-01-0.408D-01 0.302D+00-0.910D+00
 Coeff:      0.166D+01
 Gap=     0.366 Goal=   None    Shift=    0.000
 RMSDP=4.98D-06 MaxDP=4.53D-05 DE=-4.09D-08 OVMax= 5.68D-05

 Cycle   8  Pass 1  IDiag  3:
 E= 0.529431253733605E-01 Delta-E=       -0.000000003718 Rises=F Damp=F
 DIIS: error= 1.05D-06 at cycle   8 NSaved=   8.
 NSaved= 8 IEnMin= 8 EnMin= 0.529431253733605E-01 IErMin= 8 ErrMin= 1.05D-06
 ErrMax= 1.05D-06  0.00D+00 EMaxC= 1.00D-01 BMatC= 2.31D-11 BMatP= 3.66D-10
 IDIUse=1 WtCom= 1.00D+00 WtEn= 0.00D+00
 Coeff-Com:  0.945D-03-0.354D-02 0.577D-02 0.891D-02-0.907D-01 0.310D+00
 Coeff-Com: -0.776D+00 0.154D+01
 Coeff:      0.945D-03-0.354D-02 0.577D-02 0.891D-02-0.907D-01 0.310D+00
 Coeff:     -0.776D+00 0.154D+01
 Gap=     0.366 Goal=   None    Shift=    0.000
 RMSDP=1.26D-06 MaxDP=1.11D-05 DE=-3.72D-09 OVMax= 1.38D-05

 Cycle   9  Pass 1  IDiag  3:
 E= 0.529431251521686E-01 Delta-E=       -0.000000000221 Rises=F Damp=F
 DIIS: error= 1.66D-07 at cycle   9 NSaved=   9.
 NSaved= 9 IEnMin= 9 EnMin= 0.529431251521686E-01 IErMin= 9 ErrMin= 1.66D-07
 ErrMax= 1.66D-07  0.00D+00 EMaxC= 1.00D-01 BMatC= 1.04D-12 BMatP= 2.31D-11
 IDIUse=1 WtCom= 1.00D+00 WtEn= 0.00D+00
 Coeff-Com: -0.283D-03 0.106D-02-0.185D-02-0.806D-03 0.187D-01-0.748D-01
 Coeff-Com:  0.227D+00-0.632D+00 0.146D+01
 Coeff:     -0.283D-03 0.106D-02-0.185D-02-0.806D-03 0.187D-01-0.748D-01
 Coeff:      0.227D+00-0.632D+00 0.146D+01
 Gap=     0.366 Goal=   None    Shift=    0.000
 RMSDP=2.25D-07 MaxDP=1.75D-06 DE=-2.21D-10 OVMax= 2.34D-06

 Cycle  10  Pass 1  IDiag  3:
 E= 0.529431251439263E-01 Delta-E=       -0.000000000008 Rises=F Damp=F
 DIIS: error= 2.75D-08 at cycle  10 NSaved=  10.
 NSaved=10 IEnMin=10 EnMin= 0.529431251439263E-01 IErMin=10 ErrMin= 2.75D-08
 ErrMax= 2.75D-08  0.00D+00 EMaxC= 1.00D-01 BMatC= 5.42D-14 BMatP= 1.04D-12
 IDIUse=1 WtCom= 1.00D+00 WtEn= 0.00D+00
 Coeff-Com:  0.829D-04-0.312D-03 0.576D-03-0.295D-03-0.310D-02 0.166D-01
 Coeff-Com: -0.612D-01 0.206D+00-0.653D+00 0.149D+01
 Coeff:      0.829D-04-0.312D-03 0.576D-03-0.295D-03-0.310D-02 0.166D-01
 Coeff:     -0.612D-01 0.206D+00-0.653D+00 0.149D+01
 Gap=     0.366 Goal=   None    Shift=    0.000
 RMSDP=4.56D-08 MaxDP=2.20D-07 DE=-8.24D-12 OVMax= 3.03D-07

 Cycle  11  Pass 1  IDiag  3:
 E= 0.529431251437416E-01 Delta-E=        0.000000000000 Rises=F Damp=F
 DIIS: error= 6.19D-09 at cycle  11 NSaved=  11.
 NSaved=11 IEnMin=11 EnMin= 0.529431251437416E-01 IErMin=11 ErrMin= 6.19D-09
 ErrMax= 6.19D-09  0.00D+00 EMaxC= 1.00D-01 BMatC= 2.92D-15 BMatP= 5.42D-14
 IDIUse=1 WtCom= 1.00D+00 WtEn= 0.00D+00
 Coeff-Com: -0.234D-04 0.889D-04-0.175D-03 0.264D-03 0.836D-04-0.289D-02
 Coeff-Com:  0.147D-01-0.583D-01 0.212D+00-0.660D+00 0.149D+01
 Coeff:     -0.234D-04 0.889D-04-0.175D-03 0.264D-03 0.836D-04-0.289D-02
 Coeff:      0.147D-01-0.583D-01 0.212D+00-0.660D+00 0.149D+01
 Gap=     0.366 Goal=   None    Shift=    0.000
 RMSDP=1.04D-08 MaxDP=4.66D-08 DE=-1.85D-13 OVMax= 8.01D-08

 Cycle  12  Pass 1  IDiag  3:
 E= 0.529431251437416E-01 Delta-E=        0.000000000000 Rises=F Damp=F
 DIIS: error= 1.11D-09 at cycle  12 NSaved=  12.
 NSaved=12 IEnMin=11 EnMin= 0.529431251437416E-01 IErMin=12 ErrMin= 1.11D-09
 ErrMax= 1.11D-09  0.00D+00 EMaxC= 1.00D-01 BMatC= 9.37D-17 BMatP= 2.92D-15
 IDIUse=1 WtCom= 1.00D+00 WtEn= 0.00D+00
 Coeff-Com:  0.322D-05-0.124D-04 0.279D-04-0.908D-04 0.228D-03-0.144D-03
 Coeff-Com: -0.123D-02 0.806D-02-0.365D-01 0.140D+00-0.459D+00 0.135D+01
 Coeff:      0.322D-05-0.124D-04 0.279D-04-0.908D-04 0.228D-03-0.144D-03
 Coeff:     -0.123D-02 0.806D-02-0.365D-01 0.140D+00-0.459D+00 0.135D+01
 Gap=     0.366 Goal=   None    Shift=    0.000
 RMSDP=1.66D-09 MaxDP=8.09D-09 DE= 0.00D+00 OVMax= 1.07D-08

 Cycle  13  Pass 2  IDiag  1:
 SCF Done:  E(RAM1) =  0.529431251437E-01 A.U. after   13 cycles
            NFock= 12  Conv=0.17D-08     -V/T= 1.0032
 KE=-1.655575218442D+01 PE=-1.693682556716D+02 EE= 8.353482809285D+01
 Leave Link  502 at Thu Mar 17 08:41:08 2016, MaxMem=    33554432 cpu:         0.0
 (Enter /opt/g09/g09/l701.exe)
 Compute integral first derivatives.
 ... and contract with generalized density number  0.
 Leave Link  701 at Thu Mar 17 08:41:08 2016, MaxMem=    33554432 cpu:         0.0
 (Enter /opt/g09/g09/l702.exe)
 L702 exits ... SP integral derivatives will be done elsewhere.
 Leave Link  702 at Thu Mar 17 08:41:08 2016, MaxMem=    33554432 cpu:         0.0
 (Enter /opt/g09/g09/l703.exe)
 Compute integral first derivatives, UseDBF=F ICtDFT=           0.
 Integral derivatives from FoFJK, PRISM(SPDF).
 Calling FoFJK, ICntrl=      2127 FMM=F ISym2X=0 I1Cent= 0 IOpClX= 0 NMat=1 NMatS=1 NMatT=0.
 FoFJK:  IHMeth= 8 ICntrl=    2127 DoSepK=F KAlg= 0 I1Cent=   0 FoldK=F
 IRaf=         0 NMat=   1 IRICut=       1 DoRegI=T DoRafI=F ISym2E= 0.
 FoFCou: FMM=F IPFlag=           0 FMFlag=      100000 FMFlg1=         800
         NFxFlg=           0 DoJE=F BraDBF=F KetDBF=F FulRan=T
         wScrn=  0.000000 ICntrl=    2127 IOpCl=  0 I1Cent=           0 NGrid=           0
         NMat0=    1 NMatS0=      1 NMatT0=    0 NMatD0=    1 NMtDS0=    0 NMtDT0=    0
 Symmetry not used in FoFCou.
 Leave Link  703 at Thu Mar 17 08:41:08 2016, MaxMem=    33554432 cpu:         0.0
 (Enter /opt/g09/g09/l716.exe)
 Dipole        = 1.17553268D-02 3.08098754D-01-8.42418178D-03
 ***** Axes restored to original set *****
 -------------------------------------------------------------------
 Center     Atomic                   Forces (Hartrees/Bohr)
 Number     Number              X              Y              Z
 -------------------------------------------------------------------
      1        6          -0.014092904   -0.009408994    0.004514310
      2        6           0.005757641    0.000807109    0.002714313
      3        8          -0.003525160   -0.002477688   -0.005311304
      4        6           0.001792701    0.000715814    0.002609130
      5        6          -0.005119885    0.016235917   -0.002825315
      6        1           0.005737283   -0.001077082   -0.001265302
      7        1           0.000917513    0.001352293    0.001812099
      8        1          -0.000629437   -0.002190889   -0.000708048
      9        1           0.009162248   -0.003956479   -0.001539883
 -------------------------------------------------------------------
 Cartesian Forces:  Max     0.016235917 RMS     0.005621053
 Leave Link  716 at Thu Mar 17 08:41:08 2016, MaxMem=    33554432 cpu:         0.0
 (Enter /opt/g09/g09/l103.exe)

 GradGradGradGradGradGradGradGradGradGradGradGradGradGradGradGradGradGrad
 Berny optimization.
 Using GEDIIS/GDIIS optimizer.
 FormGI is forming the generalized inverse of G from B-inverse, IUseBI=4.
 Internal  Forces:  Max     0.011850387 RMS     0.003291292
 Search for a local minimum.
 Step number   3 out of a maximum of   48
 All quantities printed in internal units (Hartrees-Bohrs-Radians)
 RMS Force = .32913D-02 SwitMx=.10000D-02 MixMth= 1
 Mixed Optimization -- RFO/linear search
 Update second derivatives using D2CorX and points    2    3
 DE= -5.84D-03 DEPred=-6.03D-03 R= 9.68D-01
 TightC=F SS=  1.41D+00  RLast= 3.80D-01 DXNew= 8.4853D-01 1.1385D+00
 Trust test= 9.68D-01 RLast= 3.80D-01 DXMaxT set to 8.49D-01
 ITU=  1  1  0
 Use linear search instead of GDIIS.
     Eigenvalues ---    0.02013   0.02587   0.02793   0.02885   0.03145
     Eigenvalues ---    0.03261   0.13661   0.15982   0.15992   0.16009
     Eigenvalues ---    0.22050   0.22836   0.30248   0.33001   0.36032
     Eigenvalues ---    0.38781   0.41248   0.44529   0.49290   0.55903
     Eigenvalues ---    0.80544
 RFO step:  Lambda=-2.07729290D-03 EMin= 2.01256132D-02
 Quartic linear search produced a step of -0.05632.
 Iteration  1 RMS(Cart)=  0.02612645 RMS(Int)=  0.00084402
 Iteration  2 RMS(Cart)=  0.00065838 RMS(Int)=  0.00047407
 Iteration  3 RMS(Cart)=  0.00000053 RMS(Int)=  0.00047407
 ITry= 1 IFail=0 DXMaxC= 8.00D-02 DCOld= 1.00D+10 DXMaxT= 8.49D-01 DXLimC= 3.00D+00 Rises=F
 Variable       Old X    -DE/DX   Delta X   Delta X   Delta X     New X
                                 (Linear)    (Quad)   (Total)
[...]
     X      X                                                                                                   X                    
     X      X                                                                                                   X                    
     X      X                                                                                                   X                    
            X                                                                                                   X                    
            X                                                                                                   X                    
            X                                                                                                   X                    
                                                                                                                X                    
                                                                                                                X                    
                                                                                                                X                    
                                                                                                                X                    
 
 ***** Axes restored to original set *****
 -------------------------------------------------------------------
 Center     Atomic                   Forces (Hartrees/Bohr)
 Number     Number              X              Y              Z
 -------------------------------------------------------------------
      1        6           0.185119288   -0.176925867   -0.004290232
      2        6          -0.094400332   -0.074428994    0.005868365
      3        8          -0.094718314    0.023590284    0.003531577
      4        6          -0.048062597    0.025021875   -0.014073576
      5        6           0.093886655    0.177259373    0.009598536
      6        1          -0.007976775   -0.016782269   -0.002218058
      7        1          -0.007675399    0.015800905    0.005732923
      8        1           0.000365126    0.000524802   -0.000398240
      9        1          -0.026537652    0.025939889   -0.003751293
 -------------------------------------------------------------------
 Cartesian Forces:  Max     0.185119288 RMS     0.070753010
 Z-matrix is all fixed cartesians, so copy forces.
 Force constants in Cartesian coordinates: 
                1             2             3             4             5 
      1  0.876027D+00
      2  0.690477D-01  0.108476D+01
      3 -0.157165D-01 -0.582433D-02  0.463721D-01
      4 -0.542843D+00 -0.169033D+00  0.118369D-01  0.879572D+00
      5 -0.237396D+00 -0.114878D+00  0.695453D-02  0.210921D+00  0.818097D+00
      6  0.139356D-01  0.295370D-02 -0.378570D-01 -0.155714D-01 -0.193080D-01
      7 -0.120672D+00  0.380038D-01  0.461207D-02 -0.254156D+00  0.240340D+00
      8  0.782947D-01  0.207777D-01  0.103950D-03  0.984648D-01 -0.237882D+00
      9  0.221566D-02  0.672460D-03  0.154021D-01 -0.126104D-01  0.930667D-02
     10 -0.655214D-01  0.475184D-01  0.324842D-02  0.132142D+00 -0.357904D-01
     11  0.608465D-01 -0.506507D-01 -0.528951D-02  0.444834D-01 -0.149420D+00
     12  0.791796D-02 -0.283290D-02  0.319821D-01  0.224440D-03 -0.763007D-02
     13  0.254032D-01 -0.471850D-01 -0.267525D-02 -0.713845D-01 -0.632614D-01
     14 -0.247037D-01 -0.790233D+00  0.843656D-03 -0.519871D-01 -0.491469D-01
     15 -0.953631D-03  0.347222D-02 -0.221861D-01  0.337098D-02  0.181948D-02
     16  0.240102D-02 -0.310776D-02  0.129503D-03 -0.775693D-03  0.264886D-02
     17 -0.247275D-01 -0.242263D-01  0.180587D-03 -0.312353D-04 -0.271083D-02
     18 -0.177174D-02 -0.164972D-02  0.981183D-02  0.284651D-02 -0.514942D-03
     19 -0.344941D-02  0.855194D-03 -0.696929D-04 -0.370539D-02 -0.353978D-02
     20 -0.783649D-03  0.721978D-03 -0.451239D-03 -0.559756D-02 -0.606617D-03
     21 -0.150758D-02 -0.134319D-02 -0.480054D-03  0.197777D-02 -0.209599D-03
     22 -0.120905D-01 -0.239364D-01  0.145155D-02 -0.107523D+00 -0.127953D+00
     23 -0.774447D-02 -0.477937D-02  0.780331D-03 -0.124509D+00 -0.269581D+00
     24 -0.480506D-04  0.613267D-03  0.161467D-01  0.712586D-02  0.952649D-02
     25 -0.159255D+00  0.878376D-01 -0.281668D-02 -0.313265D-01  0.140304D-01
     26  0.871666D-01 -0.121497D+00  0.270193D-02 -0.271057D-02  0.612925D-02
     27 -0.407169D-02  0.393863D-02 -0.591917D-01  0.799371D-03  0.553609D-04
                6             7             8             9            10 
      6  0.597495D-01
      7 -0.719859D-02  0.665138D+00
      8  0.349015D-02 -0.728935D-01  0.449925D+00
      9 -0.117990D-01  0.277274D-01  0.957294D-02 -0.209995D-01
     10  0.260858D-02 -0.203688D+00 -0.311388D-01 -0.166937D-01  0.696678D+00
     11 -0.159910D-03 -0.178197D+00 -0.151814D+00 -0.175844D-01 -0.242931D+00
     12 -0.181445D-01 -0.213010D-01 -0.165703D-01 -0.206466D-01 -0.407415D-02
     13  0.110371D-02 -0.103944D+00 -0.733491D-01 -0.254746D-03 -0.404052D+00
     14  0.353811D-02 -0.288165D-01  0.180273D-01 -0.295508D-02  0.103531D+00
     15  0.309438D-01 -0.678570D-03  0.276139D-02  0.111764D-01  0.328550D-01
     16  0.328486D-03 -0.314448D-02 -0.194484D-02  0.213751D-03 -0.311728D-01
     17 -0.351742D-03  0.342525D-02  0.243598D-03  0.454937D-03  0.386534D-02
     18  0.538718D-02  0.685786D-04  0.201082D-02  0.191527D-02  0.955170D-03
     19 -0.382646D-03  0.120616D-01 -0.175643D-01 -0.129547D-02 -0.119670D+00
     20 -0.157393D-04  0.562263D-02 -0.496914D-01 -0.362390D-04  0.150184D+00
     21  0.235372D-02 -0.304581D-03 -0.111859D-02  0.111587D-01 -0.192703D-01
     22  0.512475D-02  0.118152D-01  0.183969D-01  0.562539D-03 -0.391412D-02
     23  0.942153D-02 -0.390438D-02 -0.497975D-01  0.607310D-03  0.471690D-02
     24 -0.388588D-01 -0.262194D-02  0.202267D-03  0.116525D-01  0.462199D-03
     25  0.513316D-04 -0.341030D-02  0.173420D-02  0.135234D-03 -0.801768D-03
     26  0.432091D-03 -0.358021D-02  0.210933D-03 -0.387968D-04  0.445739D-04
     27  0.822532D-02 -0.303246D-03 -0.452594D-03  0.213959D-02 -0.913693D-04
               11            12            13            14            15 
     11  0.750490D+00
     12  0.738662D-02  0.758406D-01
     13  0.172659D+00  0.272674D-01  0.753734D+00
     14 -0.108823D+00 -0.480321D-02  0.100782D+00  0.110669D+01
     15 -0.149459D-01 -0.583937D-01 -0.321684D-01  0.554852D-02  0.647950D-01
     16 -0.129445D-01  0.164109D-02 -0.188332D+00 -0.124282D+00 -0.157824D-03
     17  0.602326D-02 -0.108784D-02 -0.122233D+00 -0.147426D+00  0.136205D-03
     18 -0.202666D-03  0.839900D-02 -0.445321D-03 -0.630982D-04 -0.498898D-01
     19  0.155602D+00 -0.109568D-01 -0.106704D-01  0.216964D-01 -0.194555D-02
     20 -0.293061D+00  0.242534D-01  0.700323D-02 -0.352230D-02  0.145597D-02
     21  0.310875D-01 -0.277524D-01  0.541799D-02 -0.280307D-02  0.141541D-01
     22  0.291144D-02 -0.381965D-03 -0.267036D-02 -0.474288D-03  0.483342D-04
     23  0.541863D-04  0.100387D-02  0.108041D-02  0.857011D-03 -0.223901D-03
     24 -0.559255D-03  0.276693D-02  0.127541D-02  0.136760D-02 -0.373777D-03
     25 -0.243044D-02 -0.337194D-03  0.191682D-02  0.425441D-02 -0.370519D-03
     26 -0.279904D-02  0.280718D-03  0.245031D-01 -0.264211D-01 -0.240703D-04
     27  0.267593D-03  0.594889D-02  0.479313D-03 -0.673679D-03  0.977420D-02
               16            17            18            19            20 
     16  0.220689D+00
     17  0.139910D+00  0.167577D+00
     18 -0.172906D-02  0.369772D-03  0.288025D-01
     19 -0.441473D-04  0.127554D-03  0.145121D-03  0.124506D+00
     20  0.136410D-03  0.232033D-03  0.541041D-04 -0.157238D+00  0.346808D+00
     21 -0.160276D-03  0.222870D-03 -0.761930D-03  0.138951D-01 -0.256966D-01
     22  0.297269D-04 -0.477395D-03 -0.915631D-04  0.924479D-03  0.515610D-03
     23 -0.194526D-03 -0.979821D-04  0.451724D-04 -0.440651D-03 -0.831703D-03
     24 -0.134688D-03 -0.285367D-04 -0.169372D-02  0.423259D-03  0.503435D-03
     25  0.349416D-03  0.140957D-03  0.223318D-04  0.471662D-04  0.156787D-03
     26 -0.221536D-03  0.385329D-03 -0.494636D-04  0.501255D-03 -0.494349D-04
     27 -0.130992D-03  0.103761D-03 -0.197047D-02  0.186643D-03 -0.671403D-04
               21            22            23            24            25 
     21  0.579818D-02
     22 -0.151584D-03  0.113357D+00
     23 -0.724064D-04  0.131101D+00  0.323990D+00
     24 -0.289874D-02 -0.649698D-02 -0.115498D-01  0.139647D-01
     25  0.103532D-03  0.708328D-04 -0.104597D-03  0.148878D-04  0.192409D+00
     26 -0.670656D-04 -0.837946D-04  0.186574D-03 -0.754973D-04 -0.105619D+00
     27 -0.157166D-02 -0.650870D-04 -0.120945D-04 -0.705647D-03  0.319709D-02
               26            27 
     26  0.143854D+00
     27 -0.315986D-02  0.373515D-01
 Leave Link  716 at Thu Mar 17 08:41:09 2016, MaxMem=    33554432 cpu:         0.0
 (Enter /opt/g09/g09/l103.exe)

 GradGradGradGradGradGradGradGradGradGradGradGradGradGradGradGradGradGrad
 Berny optimization.
 Search for a local minimum.
 Step number   1 out of a maximum of    2
 All quantities printed in internal units (Hartrees-Bohrs-Radians)
 Second derivative matrix not updated -- analytic derivatives used.
 ITU=  0
     Eigenvalues ---   -0.02141  -0.01291   0.04197   0.04748   0.05705
     Eigenvalues ---    0.06212   0.06362   0.09961   0.13193   0.14636
     Eigenvalues ---    0.17628   0.20246   0.29821   0.45354   0.60882
     Eigenvalues ---    0.70959   0.79735   1.18761   1.33868   1.67160
     Eigenvalues ---    1.94829
 Eigenvalue     1 is  -2.14D-02 should be greater than     0.000000 Eigenvector:
                          Z7        Z3        Z8        Z2        Z4
   1                    0.61331  -0.56263   0.48297   0.20256   0.11418
                          Z6        Z5        Z9        Z1        X7
   1                   -0.08146  -0.07380  -0.06739  -0.02757  -0.02450
 Eigenvalue     2 is  -1.29D-02 should be greater than     0.000000 Eigenvector:
                          Z8        Z7        Z9        Z6        Z1
   1                    0.49581  -0.46531  -0.38633   0.37505  -0.36873
                          Z5        Z4        Z3        Z2        Y7
   1                    0.30677   0.08315  -0.07369   0.05944  -0.02935
 Quadratic step=4.270D-01 exceeds max=3.000D-01 adjusted using Lamda=-7.727D-02.
 Angle between NR and scaled steps=  20.68 degrees.
 Angle between quadratic step and forces=  35.49 degrees.
 Linear search not attempted -- first point.
 TrRot= -0.003905 -0.002665 -0.000228 -1.198584 -0.002787  1.199236
 Variable       Old X    -DE/DX   Delta X   Delta X   Delta X     New X
                                 (Linear)    (Quad)   (Total)
    X1        1.72591   0.18512   0.00000   0.16154   0.15853   1.88444
    Y1       -1.20824  -0.17693   0.00000  -0.11099  -0.11251  -1.32076
    Z1       -0.03624  -0.00429   0.00000  -0.00052   0.00459  -0.03166
    X2       -0.63597  -0.09440   0.00000  -0.04101  -0.04357  -0.67954
    Y2       -2.08199  -0.07443   0.00000  -0.01146  -0.01452  -2.09652
    Z2        0.02232   0.00587   0.00000  -0.00592  -0.00140   0.02092
    X3       -2.18199  -0.09472   0.00000  -0.11128  -0.11522  -2.29721
    Y3       -0.02215   0.02359   0.00000   0.01702   0.01296  -0.00919
    Z3       -0.00525   0.00353   0.00000   0.04227   0.03973   0.03448
    X4       -0.62452  -0.04806   0.00000  -0.05559  -0.06095  -0.68546
    Y4        2.11116   0.02502   0.00000   0.00002  -0.00290   2.10827
    Z4        0.17978  -0.01407   0.00000  -0.10187  -0.10827   0.07151
    X5        1.83901   0.09389   0.00000   0.06100   0.05624   1.89525
    Y5        1.23126   0.17726   0.00000   0.07681   0.07539   1.30665
    Z5       -0.04388   0.00960   0.00000   0.04886   0.04716   0.00328
    X6        3.43321  -0.00798   0.00000   0.04025   0.03469   3.46790
    Y6        2.59768  -0.01678   0.00000  -0.00846  -0.00893   2.58875
    Z6       -0.03647  -0.00222   0.00000   0.00946   0.00602  -0.03045
    X7       -1.58533  -0.00768   0.00000  -0.02440  -0.03089  -1.61623
    Y7        3.84799   0.01580   0.00000   0.05972   0.05610   3.90409
    Z7       -0.00081   0.00573   0.00000   0.04187   0.02987   0.02905
    X8       -1.56908   0.00037   0.00000  -0.02320  -0.02466  -1.59375
    Y8       -3.89789   0.00052   0.00000  -0.00744  -0.01089  -3.90878
    Z8        0.09927  -0.00040   0.00000  -0.00590   0.00240   0.10167
    X9        3.41885  -0.02654   0.00000   0.02805   0.02583   3.44468
    Y9       -2.58615   0.02594   0.00000   0.00573   0.00530  -2.58085
    Z9        0.02107  -0.00375   0.00000  -0.03005  -0.02009   0.00098
         Item               Value     Threshold  Converged?
 Maximum Force            0.185119     0.000450     NO 
 RMS     Force            0.070753     0.000300     NO 
 Maximum Displacement     0.158530     0.001800     NO 
 RMS     Displacement     0.057609     0.001200     NO 
 Predicted change in Energy=-4.845267D-02
 GradGradGradGradGradGradGradGradGradGradGradGradGradGradGradGradGradGrad

 Leave Link  103 at Thu Mar 17 08:41:09 2016, MaxMem=    33554432 cpu:         0.0
 (Enter /opt/g09/g09/l9999.exe)
 1\1\GINC-LINUX-CBNE\Freq\RAM1-Full\STO-3G\C4H4O1\DUSTIN\17-Mar-2016\0\
 \#P AM1(Input,Print) CIS(Singlets,NStates=10) pop(full) freq\\best1\\0
 ,1\C,0.913313,-0.639375,-0.01918\C,-0.33654,-1.101744,0.011811\O,-1.15
 4662,-0.01172,-0.002778\C,-0.33048,1.117179,0.095138\C,0.973161,0.6515
 53,-0.023219\H,1.816779,1.374633,-0.019301\H,-0.838923,2.036268,-0.000
 431\H,-0.830324,-2.062675,0.05253\H,1.809178,-1.368531,0.011149\\Versi
 on=ES64L-G09RevD.01\State=1-A\HF=0.0996904\RMSD=2.832e-09\RMSF=7.075e-
 02\ZeroPoint=0.0689709\Thermal=0.0724175\Dipole=0.4195092,-0.0676806,-
 0.0052905\DipoleDeriv=-0.1433411,0.1766499,0.0347609,-0.0195703,-0.191
 9955,0.00289,0.0024515,-0.0361819,-0.1727749,0.3288291,0.1975397,-0.07
 88484,-0.2529714,-0.4502612,-0.0557328,-0.0129245,0.0032345,-0.1740904
 ,-0.8076407,-0.0401556,0.0853788,0.0500725,0.451837,0.0309854,-0.03846
 13,-0.0129911,-0.2752159,0.2788754,-0.1393177,0.0398122,0.2309818,-0.3
 804987,0.0023443,0.0368757,-0.0657029,-0.2712049,-0.2120546,-0.2124566
 ,-0.1154826,-0.0399389,-0.3125516,0.0501503,0.0317383,0.0482812,-0.173
 0232,0.1650973,0.0882903,0.0075043,0.0720808,0.1638012,-0.0059239,-0.0
 057012,-0.0167288,0.1972522,0.117802,-0.1157871,0.0161194,-0.0890122,0
 .2805481,-0.0203848,-0.0163403,0.0449707,0.3597406,0.1300002,0.1213163
 ,0.0116405,0.089249,0.3013586,-0.00798,0.0109896,0.0190835,0.3374707,0
 .142432,-0.0760777,-0.0008844,-0.0408939,0.1377602,0.0036515,-0.008629
 4,0.0160325,0.1718448\Polar=38.8285499,0.8884985,63.0576157,-0.7858855
 ,1.6126941,14.663379\PG=C01 [X(C4H4O1)]\NImag=2\\0.87602689,0.06904770
 ,1.08476371,-0.01571652,-0.00582433,0.04637214,-0.54284273,-0.16903326
 ,0.01183688,0.87957191,-0.23739594,-0.11487795,0.00695453,0.21092110,0
 .81809693,0.01393563,0.00295370,-0.03785704,-0.01557142,-0.01930798,0.
 05974953,-0.12067178,0.03800380,0.00461207,-0.25415619,0.24033961,-0.0
 0719859,0.66513830,0.07829472,0.02077770,0.00010395,0.09846485,-0.2378
 8200,0.00349015,-0.07289350,0.44992499,0.00221566,0.00067246,0.0154021
 1,-0.01261039,0.00930667,-0.01179895,0.02772736,0.00957294,-0.02099945
 ,-0.06552145,0.04751838,0.00324842,0.13214205,-0.03579044,0.00260858,-
 0.20368795,-0.03113882,-0.01669373,0.69667835,0.06084647,-0.05065065,-
 0.00528951,0.04448336,-0.14942045,-0.00015991,-0.17819715,-0.15181376,
 -0.01758445,-0.24293051,0.75048998,0.00791796,-0.00283290,0.03198206,0
 .00022444,-0.00763007,-0.01814453,-0.02130101,-0.01657026,-0.02064660,
 -0.00407415,0.00738662,0.07584059,0.02540315,-0.04718499,-0.00267525,-
 0.07138454,-0.06326141,0.00110371,-0.10394436,-0.07334907,-0.00025475,
 -0.40405209,0.17265926,0.02726738,0.75373396,-0.02470369,-0.79023286,0
 .00084366,-0.05198707,-0.04914691,0.00353811,-0.02881647,0.01802731,-0
 .00295508,0.10353059,-0.10882289,-0.00480321,0.10078182,1.10668779,-0.
 00095363,0.00347222,-0.02218615,0.00337098,0.00181948,0.03094384,-0.00
 067857,0.00276139,0.01117639,0.03285502,-0.01494590,-0.05839366,-0.032
 16843,0.00554852,0.06479499,0.00240102,-0.00310776,0.00012950,-0.00077
 569,0.00264886,0.00032849,-0.00314448,-0.00194484,0.00021375,-0.031172
 76,-0.01294447,0.00164109,-0.18833218,-0.12428202,-0.00015782,0.220689
 01,-0.02472746,-0.02422633,0.00018059,-0.00003124,-0.00271083,-0.00035
 174,0.00342525,0.00024360,0.00045494,0.00386534,0.00602326,-0.00108784
 ,-0.12223281,-0.14742562,0.00013621,0.13990982,0.16757655,-0.00177174,
 -0.00164972,0.00981183,0.00284651,-0.00051494,0.00538718,0.00006858,0.
 00201082,0.00191527,0.00095517,-0.00020267,0.00839900,-0.00044532,-0.0
 0006310,-0.04988979,-0.00172906,0.00036977,0.02880253,-0.00344941,0.00
 085519,-0.00006969,-0.00370539,-0.00353978,-0.00038265,0.01206164,-0.0
 1756431,-0.00129547,-0.11967024,0.15560222,-0.01095677,-0.01067040,0.0
 2169645,-0.00194555,-0.00004415,0.00012755,0.00014512,0.12450620,-0.00
 078365,0.00072198,-0.00045124,-0.00559756,-0.00060662,-0.00001574,0.00
 562263,-0.04969142,-0.00003624,0.15018441,-0.29306053,0.02425344,0.007
 00323,-0.00352230,0.00145597,0.00013641,0.00023203,0.00005410,-0.15723
 786,0.34680798,-0.00150758,-0.00134319,-0.00048005,0.00197777,-0.00020
 960,0.00235372,-0.00030458,-0.00111859,0.01115870,-0.01927034,0.031087
 52,-0.02775238,0.00541799,-0.00280307,0.01415414,-0.00016028,0.0002228
 7,-0.00076193,0.01389511,-0.02569656,0.00579818,-0.01209049,-0.0239364
 4,0.00145155,-0.10752270,-0.12795275,0.00512475,0.01181516,0.01839693,
 0.00056254,-0.00391412,0.00291144,-0.00038196,-0.00267036,-0.00047429,
 0.00004833,0.00002973,-0.00047740,-0.00009156,0.00092448,0.00051561,-0
 .00015158,0.11335732,-0.00774447,-0.00477937,0.00078033,-0.12450936,-0
 .26958141,0.00942153,-0.00390438,-0.04979751,0.00060731,0.00471690,0.0
 0005419,0.00100387,0.00108041,0.00085701,-0.00022390,-0.00019453,-0.00
 009798,0.00004517,-0.00044065,-0.00083170,-0.00007241,0.13110064,0.323
 99019,-0.00004805,0.00061327,0.01614667,0.00712586,0.00952649,-0.03885
 881,-0.00262194,0.00020227,0.01165250,0.00046220,-0.00055926,0.0027669
 3,0.00127541,0.00136760,-0.00037378,-0.00013469,-0.00002854,-0.0016937
 2,0.00042326,0.00050343,-0.00289874,-0.00649698,-0.01154978,0.01396466
 ,-0.15925509,0.08783760,-0.00281668,-0.03132648,0.01403042,0.00005133,
 -0.00341030,0.00173420,0.00013523,-0.00080177,-0.00243044,-0.00033719,
 0.00191682,0.00425441,-0.00037052,0.00034942,0.00014096,0.00002233,0.0
 0004717,0.00015679,0.00010353,0.00007083,-0.00010460,0.00001489,0.1924
 0936,0.08716662,-0.12149652,0.00270193,-0.00271057,0.00612925,0.000432
 09,-0.00358021,0.00021093,-0.00003880,0.00004457,-0.00279904,0.0002807
 2,0.02450306,-0.02642112,-0.00002407,-0.00022154,0.00038533,-0.0000494
 6,0.00050126,-0.00004943,-0.00006707,-0.00008379,0.00018657,-0.0000755
 0,-0.10561935,0.14385398,-0.00407169,0.00393863,-0.05919174,0.00079937
 ,0.00005536,0.00822532,-0.00030325,-0.00045259,0.00213959,-0.00009137,
 0.00026759,0.00594889,0.00047931,-0.00067368,0.00977420,-0.00013099,0.
 00010376,-0.00197047,0.00018664,-0.00006714,-0.00157166,-0.00006509,-0
 .00001209,-0.00070565,0.00319709,-0.00315986,0.03735145\\-0.18511929,0
 .17692587,0.00429023,0.09440033,0.07442899,-0.00586836,0.09471831,-0.0
 2359028,-0.00353158,0.04806260,-0.02502188,0.01407358,-0.09388666,-0.1
 7725937,-0.00959854,0.00797678,0.01678227,0.00221806,0.00767540,-0.015
 80091,-0.00573292,-0.00036513,-0.00052480,0.00039824,0.02653765,-0.025
 93989,0.00375129\\\@


 SUPPORT THE RIGHT TO ARM BEARS!
 (ADD A CLAWS TO THE BILL OF RIGHTS)
 Job cpu time:       0 days  0 hours  0 minutes  0.4 seconds.
 File lengths (MBytes):  RWF=      6 Int=      0 D2E=      0 Chk=      2 Scr=      1
 Normal termination of Gaussian 09 at Thu Mar 17 08:41:09 2016.
