 Entering Gaussian System, Link 0=g09
 Input=best.com
 Output=best.log
 Initial command:
 /opt/g09/g09/l1.exe "/opt/g09/scratch/Gau-1767.inp" -scrdir="/opt/g09/scratch/"
 Entering Link 1 = /opt/g09/g09/l1.exe PID=      1768.
  
 Copyright (c) 1988,1990,1992,1993,1995,1998,2003,2009,2013,
            Gaussian, Inc.  All Rights Reserved.
  
 This is part of the Gaussian(R) 09 program.  It is based on
 the Gaussian(R) 03 system (copyright 2003, Gaussian, Inc.),
 the Gaussian(R) 98 system (copyright 1998, Gaussian, Inc.),
 the Gaussian(R) 94 system (copyright 1995, Gaussian, Inc.),
 the Gaussian 92(TM) system (copyright 1992, Gaussian, Inc.),
 the Gaussian 90(TM) system (copyright 1990, Gaussian, Inc.),
 the Gaussian 88(TM) system (copyright 1988, Gaussian, Inc.),
 the Gaussian 86(TM) system (copyright 1986, Carnegie Mellon
 University), and the Gaussian 82(TM) system (copyright 1983,
 Carnegie Mellon University). Gaussian is a federally registered
 trademark of Gaussian, Inc.
  
 This software contains proprietary and confidential information,
 including trade secrets, belonging to Gaussian, Inc.
  
 This software is provided under written license and may be
 used, copied, transmitted, or stored only in accord with that
 written license.
  
 The following legend is applicable only to US Government
 contracts under FAR:
  
                    RESTRICTED RIGHTS LEGEND
  
 Use, reproduction and disclosure by the US Government is
 subject to restrictions as set forth in subparagraphs (a)
 and (c) of the Commercial Computer Software - Restricted
 Rights clause in FAR 52.227-19.
  
 Gaussian, Inc.
 340 Quinnipiac St., Bldg. 40, Wallingford CT 06492
  
  
 ---------------------------------------------------------------
 Warning -- This program may not be used in any manner that
 competes with the business of Gaussian, Inc. or will provide
 assistance to any competitor of Gaussian, Inc.  The licensee
 of this program is prohibited from giving any competitor of
 Gaussian, Inc. access to this program.  By using this program,
 the user acknowledges that Gaussian, Inc. is engaged in the
 business of creating and licensing software in the field of
 computational chemistry and represents and warrants to the
 licensee that it is not a competitor of Gaussian, Inc. and that
 it will not use this program in any manner prohibited above.
 ---------------------------------------------------------------
  

 Cite this work as:
 Gaussian 09, Revision D.01,
 M. J. Frisch, G. W. Trucks, H. B. Schlegel, G. E. Scuseria, 
 M. A. Robb, J. R. Cheeseman, G. Scalmani, V. Barone, B. Mennucci, 
 G. A. Petersson, H. Nakatsuji, M. Caricato, X. Li, H. P. Hratchian, 
 A. F. Izmaylov, J. Bloino, G. Zheng, J. L. Sonnenberg, M. Hada, 
 M. Ehara, K. Toyota, R. Fukuda, J. Hasegawa, M. Ishida, T. Nakajima, 
 Y. Honda, O. Kitao, H. Nakai, T. Vreven, J. A. Montgomery, Jr., 
 J. E. Peralta, F. Ogliaro, M. Bearpark, J. J. Heyd, E. Brothers, 
 K. N. Kudin, V. N. Staroverov, T. Keith, R. Kobayashi, J. Normand, 
 K. Raghavachari, A. Rendell, J. C. Burant, S. S. Iyengar, J. Tomasi, 
 M. Cossi, N. Rega, J. M. Millam, M. Klene, J. E. Knox, J. B. Cross, 
 V. Bakken, C. Adamo, J. Jaramillo, R. Gomperts, R. E. Stratmann, 
 O. Yazyev, A. J. Austin, R. Cammi, C. Pomelli, J. W. Ochterski, 
 R. L. Martin, K. Morokuma, V. G. Zakrzewski, G. A. Voth, 
 P. Salvador, J. J. Dannenberg, S. Dapprich, A. D. Daniels, 
 O. Farkas, J. B. Foresman, J. V. Ortiz, J. Cioslowski, 
 and D. J. Fox, Gaussian, Inc., Wallingford CT, 2013.
 
 ******************************************
 Gaussian 09:  ES64L-G09RevD.01 24-Apr-2013
                16-Mar-2016 
 ******************************************
 -----------------------
 #P AM1(Input,Print) opt
 -----------------------
 1/14=-1,18=20,19=15,26=1,38=1/1,3;
 2/9=110,12=2,17=6,18=5,40=1/2;
 3/5=2,16=1,25=1,41=700000,71=1,135=100,136=1/1,2,3;
 4/35=1/1;
 5/5=2,35=1,38=5/2;
 6/7=2,8=2,9=2,10=2,28=1/1;
 7//1,2,3,16;
 1/14=-1,18=20,19=15,26=1/3(2);
 2/9=110/2;
 99//99;
 2/9=110/2;
 3/5=2,16=1,25=1,41=700000,71=1,135=20,136=1/1,2,3;
 4/5=5,16=3,35=1/1;
 5/5=2,35=1,38=5/2;
 7//1,2,3,16;
 1/14=-1,18=20,19=15,26=1/3(-5);
 2/9=110/2;
 6/7=2,8=2,9=2,10=2,19=2,28=1/1;
 99/9=1/99;
 Leave Link    1 at Wed Mar 16 11:15:44 2016, MaxMem=           0 cpu:         0.0
 (Enter /opt/g09/g09/l101.exe)
 ----
 best
 ----
 Symbolic Z-matrix:
 Charge =  0 Multiplicity = 1
 6                     0.96192  -0.71472  -0.00924 
 6                    -0.32757  -1.0929   -0.02638 
 8                    -1.15922  -0.00129  -0.00538 
 6                    -0.36332   1.10825  -0.01389 
 6                     0.95342   0.69719   0.09405 
 1                     1.81032   1.36977  -0.05143 
 1                    -0.80422   2.03736  -0.01736 
 1                    -0.84018  -2.10827   0.01221 
 1                     1.8091   -1.34039   0.07596 
 
 NAtoms=      9 NQM=        9 NQMF=       0 NMMI=      0 NMMIF=      0
                NMic=       0 NMicF=      0.
                    Isotopes and Nuclear Properties:
 (Nuclear quadrupole moments (NQMom) in fm**2, nuclear magnetic moments (NMagM)
  in nuclear magnetons)

  Atom         1           2           3           4           5           6           7           8           9
 IAtWgt=          12          12          16          12          12           1           1           1           1
 AtmWgt=  12.0000000  12.0000000  15.9949146  12.0000000  12.0000000   1.0078250   1.0078250   1.0078250   1.0078250
 NucSpn=           0           0           0           0           0           1           1           1           1
 AtZEff=   0.0000000   0.0000000   0.0000000   0.0000000   0.0000000   0.0000000   0.0000000   0.0000000   0.0000000
 NQMom=    0.0000000   0.0000000   0.0000000   0.0000000   0.0000000   0.0000000   0.0000000   0.0000000   0.0000000
 NMagM=    0.0000000   0.0000000   0.0000000   0.0000000   0.0000000   2.7928460   2.7928460   2.7928460   2.7928460
 AtZNuc=   6.0000000   6.0000000   8.0000000   6.0000000   6.0000000   1.0000000   1.0000000   1.0000000   1.0000000
 Leave Link  101 at Wed Mar 16 11:15:44 2016, MaxMem=    33554432 cpu:         0.0
 (Enter /opt/g09/g09/l103.exe)

 GradGradGradGradGradGradGradGradGradGradGradGradGradGradGradGradGradGrad
 Berny optimization.
 Initialization pass.
                           ----------------------------
                           !    Initial Parameters    !
                           ! (Angstroms and Degrees)  !
 --------------------------                            --------------------------
 ! Name  Definition              Value          Derivative Info.                !
 --------------------------------------------------------------------------------
 ! R1    R(1,2)                  1.3439         estimate D2E/DX2                !
 ! R2    R(1,5)                  1.4157         estimate D2E/DX2                !
 ! R3    R(1,9)                  1.0566         estimate D2E/DX2                !
 ! R4    R(2,3)                  1.3725         estimate D2E/DX2                !
 ! R5    R(2,8)                  1.1381         estimate D2E/DX2                !
 ! R6    R(3,4)                  1.3655         estimate D2E/DX2                !
 ! R7    R(4,5)                  1.3836         estimate D2E/DX2                !
 ! R8    R(4,7)                  1.0284         estimate D2E/DX2                !
 ! R9    R(5,6)                  1.099          estimate D2E/DX2                !
 ! A1    A(2,1,5)              106.0106         estimate D2E/DX2                !
 ! A2    A(2,1,9)              127.1365         estimate D2E/DX2                !
 ! A3    A(5,1,9)              126.1206         estimate D2E/DX2                !
 ! A4    A(1,2,3)              110.9405         estimate D2E/DX2                !
 ! A5    A(1,2,8)              133.0635         estimate D2E/DX2                !
 ! A6    A(3,2,8)              115.8581         estimate D2E/DX2                !
 ! A7    A(2,3,4)              107.0369         estimate D2E/DX2                !
 ! A8    A(3,4,5)              108.2276         estimate D2E/DX2                !
 ! A9    A(3,4,7)              118.9612         estimate D2E/DX2                !
 ! A10   A(5,4,7)              132.5834         estimate D2E/DX2                !
 ! A11   A(1,5,4)              107.2367         estimate D2E/DX2                !
 ! A12   A(1,5,6)              126.5846         estimate D2E/DX2                !
 ! A13   A(4,5,6)              123.3577         estimate D2E/DX2                !
 ! D1    D(5,1,2,3)              2.925          estimate D2E/DX2                !
 ! D2    D(5,1,2,8)           -172.5123         estimate D2E/DX2                !
 ! D3    D(9,1,2,3)            173.5317         estimate D2E/DX2                !
 ! D4    D(9,1,2,8)             -1.9056         estimate D2E/DX2                !
 ! D5    D(2,1,5,4)             -6.4447         estimate D2E/DX2                !
 ! D6    D(2,1,5,6)           -167.7549         estimate D2E/DX2                !
 ! D7    D(9,1,5,4)           -177.1754         estimate D2E/DX2                !
 ! D8    D(9,1,5,6)             21.5143         estimate D2E/DX2                !
 ! D9    D(1,2,3,4)              1.7603         estimate D2E/DX2                !
 ! D10   D(8,2,3,4)            178.0571         estimate D2E/DX2                !
 ! D11   D(2,3,4,5)             -5.8559         estimate D2E/DX2                !
 ! D12   D(2,3,4,7)            178.9502         estimate D2E/DX2                !
 ! D13   D(3,4,5,1)              7.6453         estimate D2E/DX2                !
 ! D14   D(3,4,5,6)            169.7029         estimate D2E/DX2                !
 ! D15   D(7,4,5,1)           -178.0687         estimate D2E/DX2                !
 ! D16   D(7,4,5,6)            -16.0111         estimate D2E/DX2                !
 --------------------------------------------------------------------------------
 Trust Radius=3.00D-01 FncErr=1.00D-07 GrdErr=1.00D-07
 Number of steps in this run=     48 maximum allowed number of steps=    100.
 GradGradGradGradGradGradGradGradGradGradGradGradGradGradGradGradGradGrad

 Leave Link  103 at Wed Mar 16 11:15:44 2016, MaxMem=    33554432 cpu:         0.0
 (Enter /opt/g09/g09/l202.exe)
                          Input orientation:                          
 ---------------------------------------------------------------------
 Center     Atomic      Atomic             Coordinates (Angstroms)
 Number     Number       Type             X           Y           Z
 ---------------------------------------------------------------------
      1          6           0        0.961919   -0.714719   -0.009241
      2          6           0       -0.327566   -1.092899   -0.026381
      3          8           0       -1.159217   -0.001289   -0.005381
      4          6           0       -0.363317    1.108254   -0.013890
      5          6           0        0.953415    0.697189    0.094054
      6          1           0        1.810315    1.369774   -0.051430
      7          1           0       -0.804222    2.037356   -0.017360
      8          1           0       -0.840184   -2.108268    0.012209
      9          1           0        1.809100   -1.340387    0.075961
 ---------------------------------------------------------------------
                    Distance matrix (angstroms):
                    1          2          3          4          5
     1  C    0.000000
     2  C    1.343907   0.000000
     3  O    2.237904   1.372478   0.000000
     4  C    2.253775   2.201479   1.365509   0.000000
     5  C    1.415707   2.204503   2.227324   1.383622   0.000000
     6  H    2.250926   3.261276   3.271094   2.189630   1.099006
     7  H    3.270051   3.166351   2.069357   1.028416   2.213086
     8  H    2.278160   1.138086   2.131068   3.251784   3.330808
     9  H    1.056615   2.153385   3.257408   3.274647   2.210032
                    6          7          8          9
     6  H    0.000000
     7  H    2.698635   0.000000
     8  H    4.373325   4.145885   0.000000
     9  H    2.713154   4.271687   2.759060   0.000000
 Stoichiometry    C4H4O
 Framework group  C1[X(C4H4O)]
 Deg. of freedom    21
 Full point group                 C1      NOp   1
 Largest Abelian subgroup         C1      NOp   1
 Largest concise Abelian subgroup C1      NOp   1
                         Standard orientation:                         
 ---------------------------------------------------------------------
 Center     Atomic      Atomic             Coordinates (Angstroms)
 Number     Number       Type             X           Y           Z
 ---------------------------------------------------------------------
      1          6           0       -0.819764    0.870801    0.030402
      2          6           0       -1.045685   -0.453908    0.016578
      3          8           0        0.135253   -1.152635   -0.012750
      4          6           0        1.144753   -0.233786    0.022496
      5          6           0        0.584182    1.028450   -0.060750
      6          1           0        1.151760    1.954125    0.108937
      7          1           0        2.118744   -0.563901    0.024599
      8          1           0       -1.994373   -1.079862   -0.041843
      9          1           0       -1.539074    1.641372   -0.042052
 ---------------------------------------------------------------------
 Rotational constants (GHZ):      9.4977451      9.2417782      4.6910402
 Leave Link  202 at Wed Mar 16 11:15:44 2016, MaxMem=    33554432 cpu:         0.0
 (Enter /opt/g09/g09/l301.exe)

 Semi-emprical parameters in input format:
 Method=8 CoreType=1 PeptideFC=0.0114505045 RIJScale=0.5291772086
 ****
 H       
 PQN=1 NValence=1 F0ss=0.4721553327 ZetaOverlap=1.1880780000 U=-0.4188110042
 Beta=-0.2441223054 CoreKO=1.0589197790 KON=0,0,0,1.0589197790 KON=1,0,1,1.0589197790
 KON=0,1,1,1.0589197790 KON=2,1,1,0.9843725478 EISol=-0.4188110042 EHeat=0.0830298228
 Alpha=1.6558439973
 GCore=0.0080630777,1.4001425905,2.2928194418
 GCore=0.0003534810,1.5268383192,3.4015070392
 GCore=-0.0012733648,0.5600570362,3.9684248791
 ****
 C       
 PQN=2,2 NValence=4 F0ss=0.4517579033 F0sp=0.4215147623 F0pp=0.3426493745 F2pp=0.1898715146
 G1sp=0.2679025821
 ZetaOverlap=1.8086650000,1.6851160000
 U=-1.9120180828,-1.4557965594
 Beta=-0.5775444233,-0.2836784428 DDN=0,1,0.8236736000 DDN=1,1,0.7268015000
 CoreKO=1.1124284736 KON=0,0,0,1.1124284736 KON=1,0,1,0.8219701441 KON=0,1,1,1.0275270532
 KON=2,1,1,0.8007689454 EISol=-4.4398989268 EHeat=0.2723305520 Alpha=1.4014062429
 DipHyp=1.6472524267
 GCore=0.0007885612,1.4001425905,2.9110675965
 GCore=0.0031892455,1.4001425905,3.1888237693
 GCore=-0.0013931594,1.4001425905,3.7775512852
 GCore=-0.0000875022,1.4001425905,5.0077742521
 ****
 O       
 PQN=2,2 NValence=6 F0ss=0.5501774639 F0sp=0.5321302318 F0pp=0.4958708974 F2pp=0.2358081713
 G1sp=0.4479942254
 ZetaOverlap=3.1080320000,2.5240390000
 U=-3.5951865036,-2.8760896690
 Beta=-1.0685440671,-1.0757546603 DDN=0,1,0.4988896000 DDN=1,1,0.4375728488
 CoreKO=0.8822957477 KON=0,0,0,0.8822957477 KON=1,0,1,0.5019543089 KON=0,1,1,0.8822957477
 KON=2,1,1,0.5515584117 EISol=-11.6164441184 EHeat=0.0949133088 Alpha=2.3576807890
 DipHyp=0.9977217969
 GCore=0.0204109328,1.4863573494,1.6023328031
 GCore=0.0059072227,2.0615561427,2.7307884326
 ****
 
 Standard basis: VSTO-6G (5D, 7F)
 Ernie: Thresh=  0.10000D-02 Tol=  0.10000D-05 Strict=F.
  NNHCO=     0 NNPyr=     0 NCTC=     0               EPep=         0.000000000
    EC=        68.690510846  ECS=         1.753454884   EG=         0.373343036
   EHC=         0.000000000  EAt=       -31.051283842  AtH=         1.516354808
 EPDDG=         0.000000000  ECC=        70.817308766 EAtT=        32.567638650
 There are    24 symmetry adapted cartesian basis functions of A   symmetry.
 There are    24 symmetry adapted basis functions of A   symmetry.
    24 basis functions,   144 primitive gaussians,    24 cartesian basis functions
    13 alpha electrons       13 beta electrons
       nuclear repulsion energy       103.3849474166 Hartrees.
 IExCor=    0 DFT=F Ex=HF Corr=None ExCW=0 ScaHFX=  1.000000
 ScaDFX=  1.000000  1.000000  1.000000  1.000000 ScalE2=  1.000000  1.000000
 IRadAn=      0 IRanWt=     -1 IRanGd=            0 ICorTp=0 IEmpDi=  4
 Integral buffers will be    131072 words long.
 Regular integral format.
 Two-electron integral symmetry is turned off.
 Leave Link  301 at Wed Mar 16 11:15:44 2016, MaxMem=    33554432 cpu:         0.0
 (Enter /opt/g09/g09/l302.exe)
 Do NDO integrals.
 NPDir=0 NMtPBC=     1 NCelOv=     1 NCel=       1 NClECP=     1 NCelD=      1
         NCelK=      1 NCelE2=     1 NClLst=     1 CellRange=     0.0.
 One-electron integrals computed using PRISM.
 NBasis=    24 RedAO= F EigKep=  0.00D+00  NBF=    24
 NBsUse=    24 1.00D-04 EigRej=  0.00D+00 NBFU=    24
 Leave Link  302 at Wed Mar 16 11:15:44 2016, MaxMem=    33554432 cpu:         0.0
 (Enter /opt/g09/g09/l303.exe)
 DipDrv:  MaxL=1.
 Leave Link  303 at Wed Mar 16 11:15:44 2016, MaxMem=    33554432 cpu:         0.0
 (Enter /opt/g09/g09/l401.exe)
 Simple Huckel Guess.
 JPrj=0 DoOrth=F DoCkMO=F.
 Leave Link  401 at Wed Mar 16 11:15:44 2016, MaxMem=    33554432 cpu:         0.0
 (Enter /opt/g09/g09/l502.exe)
 Closed shell SCF:
 Using DIIS extrapolation, IDIIS=  1040.
 Overlap will be assumed to be unity.
 Two-electron integral symmetry not used.
 Keep J ints in memory in canonical form, NReq=888082.
 IVT=       79475 IEndB=       79475 NGot=    33554432 MDV=    33473473
 LenX=    33473473 LenY=    33472456
 Requested convergence on RMS density matrix=1.00D-08 within 128 cycles.
 Requested convergence on MAX density matrix=1.00D-06.
 Requested convergence on             energy=1.00D-06.
 No special actions if energy rises.
 FoFCou: FMM=F IPFlag=           0 FMFlag=           0 FMFlg1=           0
         NFxFlg=           0 DoJE=F BraDBF=F KetDBF=F FulRan=T
         wScrn=  0.000000 ICntrl=     600 IOpCl=  2 I1Cent=           0 NGrid=           0
         NMat0=    1 NMatS0=     54 NMatT0=    0 NMatD0=    1 NMtDS0=    0 NMtDT0=    0
 Symmetry not used in FoFCou.

 Cycle   1  Pass 1  IDiag  1:
 E=-0.278403623117058    
 DIIS: error= 5.37D-02 at cycle   1 NSaved=   1.
 NSaved= 1 IEnMin= 1 EnMin=-0.278403623117058     IErMin= 1 ErrMin= 5.37D-02
 ErrMax= 5.37D-02  0.00D+00 EMaxC= 1.00D-01 BMatC= 1.11D-01 BMatP= 1.11D-01
 IDIUse=3 WtCom= 4.63D-01 WtEn= 5.37D-01
 Coeff-Com:  0.100D+01
 Coeff-En:   0.100D+01
 Coeff:      0.100D+01
 GapD=    2.000 DampG=2.000 DampE=0.500 DampFc=1.0000 IDamp=-1.
 RMSDP=2.17D-02 MaxDP=1.61D-01              OVMax= 0.00D+00

 Cycle   2  Pass 1  IDiag  1:
 E=-0.597406630980970     Delta-E=       -0.319003007864 Rises=F Damp=F
 DIIS: error= 2.28D-02 at cycle   2 NSaved=   2.
 NSaved= 2 IEnMin= 2 EnMin=-0.597406630980970     IErMin= 2 ErrMin= 2.28D-02
 ErrMax= 2.28D-02  0.00D+00 EMaxC= 1.00D-01 BMatC= 1.20D-02 BMatP= 1.11D-01
 IDIUse=3 WtCom= 7.72D-01 WtEn= 2.28D-01
 Coeff-Com: -0.394D+00 0.139D+01
 Coeff-En:   0.000D+00 0.100D+01
 Coeff:     -0.304D+00 0.130D+01
 RMSDP=1.02D-02 MaxDP=9.73D-02 DE=-3.19D-01 OVMax= 0.00D+00

 Cycle   3  Pass 1  IDiag  1:
 E=-0.643000315981595     Delta-E=       -0.045593685001 Rises=F Damp=F
 DIIS: error= 5.31D-03 at cycle   3 NSaved=   3.
 NSaved= 3 IEnMin= 3 EnMin=-0.643000315981595     IErMin= 3 ErrMin= 5.31D-03
 ErrMax= 5.31D-03  0.00D+00 EMaxC= 1.00D-01 BMatC= 8.63D-04 BMatP= 1.20D-02
 IDIUse=3 WtCom= 9.47D-01 WtEn= 5.31D-02
 Coeff-Com:  0.252D+00-0.101D+01 0.176D+01
 Coeff-En:   0.000D+00 0.000D+00 0.100D+01
 Coeff:      0.239D+00-0.958D+00 0.172D+01
 RMSDP=4.46D-03 MaxDP=4.85D-02 DE=-4.56D-02 OVMax= 0.00D+00

 Cycle   4  Pass 1  IDiag  3:
 E=-0.648251110715918     Delta-E=       -0.005250794734 Rises=F Damp=F
 DIIS: error= 1.38D-03 at cycle   4 NSaved=   4.
 NSaved= 4 IEnMin= 4 EnMin=-0.648251110715918     IErMin= 4 ErrMin= 1.38D-03
 ErrMax= 1.38D-03  0.00D+00 EMaxC= 1.00D-01 BMatC= 6.04D-05 BMatP= 8.63D-04
 IDIUse=3 WtCom= 9.86D-01 WtEn= 1.38D-02
 Coeff-Com: -0.219D-01 0.727D-01-0.310D+00 0.126D+01
 Coeff-En:   0.000D+00 0.000D+00 0.000D+00 0.100D+01
 Coeff:     -0.216D-01 0.717D-01-0.305D+00 0.126D+01
 Gap=     0.389 Goal=   None    Shift=    0.000
 RMSDP=1.16D-03 MaxDP=1.26D-02 DE=-5.25D-03 OVMax= 1.04D-02

 Cycle   5  Pass 1  IDiag  3:
 E=-0.648612989615970     Delta-E=       -0.000361878900 Rises=F Damp=F
 DIIS: error= 4.03D-04 at cycle   5 NSaved=   5.
 NSaved= 5 IEnMin= 5 EnMin=-0.648612989615970     IErMin= 5 ErrMin= 4.03D-04
 ErrMax= 4.03D-04  0.00D+00 EMaxC= 1.00D-01 BMatC= 7.81D-06 BMatP= 6.04D-05
 IDIUse=3 WtCom= 9.96D-01 WtEn= 4.03D-03
 Coeff-Com: -0.173D-01 0.820D-01-0.868D-01-0.447D+00 0.147D+01
 Coeff-En:   0.000D+00 0.000D+00 0.000D+00 0.000D+00 0.100D+01
 Coeff:     -0.173D-01 0.817D-01-0.864D-01-0.446D+00 0.147D+01
 Gap=     0.389 Goal=   None    Shift=    0.000
 RMSDP=4.59D-04 MaxDP=2.88D-03 DE=-3.62D-04 OVMax= 4.11D-03

 Cycle   6  Pass 1  IDiag  3:
 E=-0.648664703104643     Delta-E=       -0.000051713489 Rises=F Damp=F
 DIIS: error= 1.28D-04 at cycle   6 NSaved=   6.
 NSaved= 6 IEnMin= 6 EnMin=-0.648664703104643     IErMin= 6 ErrMin= 1.28D-04
 ErrMax= 1.28D-04  0.00D+00 EMaxC= 1.00D-01 BMatC= 7.66D-07 BMatP= 7.81D-06
 IDIUse=3 WtCom= 9.99D-01 WtEn= 1.28D-03
 Coeff-Com:  0.302D-02-0.150D-01 0.257D-01 0.563D-01-0.562D+00 0.149D+01
 Coeff-En:   0.000D+00 0.000D+00 0.000D+00 0.000D+00 0.000D+00 0.100D+01
 Coeff:      0.301D-02-0.150D-01 0.257D-01 0.562D-01-0.561D+00 0.149D+01
 Gap=     0.389 Goal=   None    Shift=    0.000
 RMSDP=1.64D-04 MaxDP=1.10D-03 DE=-5.17D-05 OVMax= 1.46D-03

 Cycle   7  Pass 1  IDiag  3:
 E=-0.648669860474840     Delta-E=       -0.000005157370 Rises=F Damp=F
 DIIS: error= 2.82D-05 at cycle   7 NSaved=   7.
 NSaved= 7 IEnMin= 7 EnMin=-0.648669860474840     IErMin= 7 ErrMin= 2.82D-05
 ErrMax= 2.82D-05  0.00D+00 EMaxC= 1.00D-01 BMatC= 3.73D-08 BMatP= 7.66D-07
 IDIUse=1 WtCom= 1.00D+00 WtEn= 0.00D+00
 Coeff-Com: -0.466D-03 0.185D-02-0.589D-02 0.835D-02 0.120D+00-0.543D+00
 Coeff-Com:  0.142D+01
 Coeff:     -0.466D-03 0.185D-02-0.589D-02 0.835D-02 0.120D+00-0.543D+00
 Coeff:      0.142D+01
 Gap=     0.389 Goal=   None    Shift=    0.000
 RMSDP=3.17D-05 MaxDP=2.27D-04 DE=-5.16D-06 OVMax= 2.30D-04

 Cycle   8  Pass 1  IDiag  3:
 E=-0.648670112145453     Delta-E=       -0.000000251671 Rises=F Damp=F
 DIIS: error= 1.08D-05 at cycle   8 NSaved=   8.
 NSaved= 8 IEnMin= 8 EnMin=-0.648670112145453     IErMin= 8 ErrMin= 1.08D-05
 ErrMax= 1.08D-05  0.00D+00 EMaxC= 1.00D-01 BMatC= 4.61D-09 BMatP= 3.73D-08
 IDIUse=1 WtCom= 1.00D+00 WtEn= 0.00D+00
 Coeff-Com:  0.137D-03-0.490D-03 0.212D-02-0.467D-03-0.962D-01 0.412D+00
 Coeff-Com: -0.123D+01 0.191D+01
 Coeff:      0.137D-03-0.490D-03 0.212D-02-0.467D-03-0.962D-01 0.412D+00
 Coeff:     -0.123D+01 0.191D+01
 Gap=     0.389 Goal=   None    Shift=    0.000
 RMSDP=1.58D-05 MaxDP=1.17D-04 DE=-2.52D-07 OVMax= 1.75D-04

 Cycle   9  Pass 1  IDiag  3:
 E=-0.648670156484570     Delta-E=       -0.000000044339 Rises=F Damp=F
 DIIS: error= 3.98D-06 at cycle   9 NSaved=   9.
 NSaved= 9 IEnMin= 9 EnMin=-0.648670156484570     IErMin= 9 ErrMin= 3.98D-06
 ErrMax= 3.98D-06  0.00D+00 EMaxC= 1.00D-01 BMatC= 6.02D-10 BMatP= 4.61D-09
 IDIUse=1 WtCom= 1.00D+00 WtEn= 0.00D+00
 Coeff-Com: -0.303D-04 0.477D-04-0.840D-03-0.705D-03 0.674D-01-0.288D+00
 Coeff-Com:  0.890D+00-0.164D+01 0.197D+01
 Coeff:     -0.303D-04 0.477D-04-0.840D-03-0.705D-03 0.674D-01-0.288D+00
 Coeff:      0.890D+00-0.164D+01 0.197D+01
 Gap=     0.389 Goal=   None    Shift=    0.000
 RMSDP=6.99D-06 MaxDP=5.76D-05 DE=-4.43D-08 OVMax= 6.63D-05

 Cycle  10  Pass 1  IDiag  3:
 E=-0.648670163427198     Delta-E=       -0.000000006943 Rises=F Damp=F
 DIIS: error= 1.89D-06 at cycle  10 NSaved=  10.
 NSaved=10 IEnMin=10 EnMin=-0.648670163427198     IErMin=10 ErrMin= 1.89D-06
 ErrMax= 1.89D-06  0.00D+00 EMaxC= 1.00D-01 BMatC= 1.03D-10 BMatP= 6.02D-10
 IDIUse=1 WtCom= 1.00D+00 WtEn= 0.00D+00
 Coeff-Com: -0.862D-05 0.108D-03 0.315D-03 0.495D-03-0.438D-01 0.190D+00
 Coeff-Com: -0.602D+00 0.116D+01-0.172D+01 0.202D+01
 Coeff:     -0.862D-05 0.108D-03 0.315D-03 0.495D-03-0.438D-01 0.190D+00
 Coeff:     -0.602D+00 0.116D+01-0.172D+01 0.202D+01
 Gap=     0.389 Goal=   None    Shift=    0.000
 RMSDP=2.98D-06 MaxDP=2.93D-05 DE=-6.94D-09 OVMax= 2.80D-05

 Cycle  11  Pass 1  IDiag  3:
 E=-0.648670164664836     Delta-E=       -0.000000001238 Rises=F Damp=F
 DIIS: error= 8.06D-07 at cycle  11 NSaved=  11.
 NSaved=11 IEnMin=11 EnMin=-0.648670164664836     IErMin=11 ErrMin= 8.06D-07
 ErrMax= 8.06D-07  0.00D+00 EMaxC= 1.00D-01 BMatC= 2.09D-11 BMatP= 1.03D-10
 IDIUse=1 WtCom= 1.00D+00 WtEn= 0.00D+00
 Coeff-Com:  0.222D-04-0.155D-03-0.956D-04-0.727D-03 0.348D-01-0.149D+00
 Coeff-Com:  0.477D+00-0.928D+00 0.146D+01-0.220D+01 0.231D+01
 Coeff:      0.222D-04-0.155D-03-0.956D-04-0.727D-03 0.348D-01-0.149D+00
 Coeff:      0.477D+00-0.928D+00 0.146D+01-0.220D+01 0.231D+01
 Gap=     0.389 Goal=   None    Shift=    0.000
 RMSDP=1.68D-06 MaxDP=1.54D-05 DE=-1.24D-09 OVMax= 1.68D-05

 Cycle  12  Pass 1  IDiag  3:
 E=-0.648670164959611     Delta-E=       -0.000000000295 Rises=F Damp=F
 DIIS: error= 2.91D-07 at cycle  12 NSaved=  12.
 NSaved=12 IEnMin=12 EnMin=-0.648670164959611     IErMin=12 ErrMin= 2.91D-07
 ErrMax= 2.91D-07  0.00D+00 EMaxC= 1.00D-01 BMatC= 1.68D-12 BMatP= 2.09D-11
 IDIUse=1 WtCom= 1.00D+00 WtEn= 0.00D+00
 Coeff-Com: -0.126D-04 0.777D-04-0.799D-05 0.407D-03-0.133D-01 0.568D-01
 Coeff-Com: -0.182D+00 0.356D+00-0.576D+00 0.954D+00-0.131D+01 0.172D+01
 Coeff:     -0.126D-04 0.777D-04-0.799D-05 0.407D-03-0.133D-01 0.568D-01
 Coeff:     -0.182D+00 0.356D+00-0.576D+00 0.954D+00-0.131D+01 0.172D+01
 Gap=     0.389 Goal=   None    Shift=    0.000
 RMSDP=4.76D-07 MaxDP=4.40D-06 DE=-2.95D-10 OVMax= 3.94D-06

 Cycle  13  Pass 1  IDiag  3:
 E=-0.648670164980317     Delta-E=       -0.000000000021 Rises=F Damp=F
 DIIS: error= 3.83D-08 at cycle  13 NSaved=  13.
 NSaved=13 IEnMin=13 EnMin=-0.648670164980317     IErMin=13 ErrMin= 3.83D-08
 ErrMax= 3.83D-08  0.00D+00 EMaxC= 1.00D-01 BMatC= 5.01D-14 BMatP= 1.68D-12
 IDIUse=1 WtCom= 1.00D+00 WtEn= 0.00D+00
 Coeff-Com:  0.157D-05-0.114D-04-0.748D-06-0.804D-04 0.229D-02-0.968D-02
 Coeff-Com:  0.309D-01-0.605D-01 0.988D-01-0.174D+00 0.273D+00-0.513D+00
 Coeff-Com:  0.135D+01
 Coeff:      0.157D-05-0.114D-04-0.748D-06-0.804D-04 0.229D-02-0.968D-02
 Coeff:      0.309D-01-0.605D-01 0.988D-01-0.174D+00 0.273D+00-0.513D+00
 Coeff:      0.135D+01
 Gap=     0.389 Goal=   None    Shift=    0.000
 RMSDP=5.25D-08 MaxDP=3.87D-07 DE=-2.07D-11 OVMax= 5.11D-07

 Cycle  14  Pass 1  IDiag  3:
 E=-0.648670164980686     Delta-E=        0.000000000000 Rises=F Damp=F
 DIIS: error= 4.89D-09 at cycle  14 NSaved=  14.
 NSaved=14 IEnMin=14 EnMin=-0.648670164980686     IErMin=14 ErrMin= 4.89D-09
 ErrMax= 4.89D-09  0.00D+00 EMaxC= 1.00D-01 BMatC= 1.96D-15 BMatP= 5.01D-14
 IDIUse=1 WtCom= 1.00D+00 WtEn= 0.00D+00
 Coeff-Com: -0.245D-06 0.185D-05-0.780D-06 0.151D-04-0.310D-03 0.129D-02
 Coeff-Com: -0.413D-02 0.805D-02-0.134D-01 0.261D-01-0.461D-01 0.108D+00
 Coeff-Com: -0.436D+00 0.136D+01
 Coeff:     -0.245D-06 0.185D-05-0.780D-06 0.151D-04-0.310D-03 0.129D-02
 Coeff:     -0.413D-02 0.805D-02-0.134D-01 0.261D-01-0.461D-01 0.108D+00
 Coeff:     -0.436D+00 0.136D+01
 Gap=     0.389 Goal=   None    Shift=    0.000
 RMSDP=7.40D-09 MaxDP=3.92D-08 DE=-3.69D-13 OVMax= 6.21D-08

 Cycle  15  Pass 2  IDiag  1:
 SCF Done:  E(RAM1) = -0.648670164981     A.U. after   15 cycles
            NFock= 14  Conv=0.74D-08     -V/T= 0.9616
 KE=-1.691217294381D+01 PE=-1.717607686652D+02 EE= 8.463932402738D+01
 Leave Link  502 at Wed Mar 16 11:15:44 2016, MaxMem=    33554432 cpu:         0.0
 (Enter /opt/g09/g09/l601.exe)
 Copying SCF densities to generalized density rwf, IOpCl= 0 IROHF=0.

 **********************************************************************

            Population analysis using the SCF density.

 **********************************************************************

 Orbital symmetries:
       Occupied  (A) (A) (A) (A) (A) (A) (A) (A) (A) (A) (A) (A)
                 (A)
       Virtual   (A) (A) (A) (A) (A) (A) (A) (A) (A) (A) (A)
 The electronic state is 1-A.
 Alpha  occ. eigenvalues --   -1.53695  -1.20976  -1.05345  -0.82187  -0.80582
 Alpha  occ. eigenvalues --   -0.70147  -0.61799  -0.57271  -0.53321  -0.52310
 Alpha  occ. eigenvalues --   -0.50847  -0.41721  -0.39514
 Alpha virt. eigenvalues --   -0.00629   0.02832   0.09335   0.14785   0.17607
 Alpha virt. eigenvalues --    0.18758   0.19849   0.20244   0.20840   0.21714
 Alpha virt. eigenvalues --    0.22832
          Condensed to atoms (all electrons):
               1          2          3          4          5          6
     1  C    4.305785   0.000000   0.000000   0.000000   0.000000   0.000000
     2  C    0.000000   4.481899   0.000000   0.000000   0.000000   0.000000
     3  O    0.000000   0.000000   5.677997   0.000000   0.000000   0.000000
     4  C    0.000000   0.000000   0.000000   4.499816   0.000000   0.000000
     5  C    0.000000   0.000000   0.000000   0.000000   4.306766   0.000000
     6  H    0.000000   0.000000   0.000000   0.000000   0.000000   0.701102
     7  H    0.000000   0.000000   0.000000   0.000000   0.000000   0.000000
     8  H    0.000000   0.000000   0.000000   0.000000   0.000000   0.000000
     9  H    0.000000   0.000000   0.000000   0.000000   0.000000   0.000000
               7          8          9
     1  C    0.000000   0.000000   0.000000
     2  C    0.000000   0.000000   0.000000
     3  O    0.000000   0.000000   0.000000
     4  C    0.000000   0.000000   0.000000
     5  C    0.000000   0.000000   0.000000
     6  H    0.000000   0.000000   0.000000
     7  H    0.667224   0.000000   0.000000
     8  H    0.000000   0.656676   0.000000
     9  H    0.000000   0.000000   0.702735
 Mulliken charges:
               1
     1  C   -0.305785
     2  C   -0.481899
     3  O    0.322003
     4  C   -0.499816
     5  C   -0.306766
     6  H    0.298898
     7  H    0.332776
     8  H    0.343324
     9  H    0.297265
 Sum of Mulliken charges =   0.00000
 Mulliken charges with hydrogens summed into heavy atoms:
               1
     1  C   -0.008520
     2  C   -0.138576
     3  O    0.322003
     4  C   -0.167040
     5  C   -0.007868
 Charge=              0.0000 electrons
 Dipole moment (field-independent basis, Debye):
    X=             -0.2100    Y=             -0.2170    Z=             -0.0072  Tot=              0.3020
 N-N= 1.033849474166D+02 E-N=-1.717607686969D+02  KE=-1.691217294381D+01
 Leave Link  601 at Wed Mar 16 11:15:44 2016, MaxMem=    33554432 cpu:         0.0
 (Enter /opt/g09/g09/l701.exe)
 Compute integral first derivatives.
 ... and contract with generalized density number  0.
 Leave Link  701 at Wed Mar 16 11:15:44 2016, MaxMem=    33554432 cpu:         0.0
 (Enter /opt/g09/g09/l702.exe)
 L702 exits ... SP integral derivatives will be done elsewhere.
 Leave Link  702 at Wed Mar 16 11:15:44 2016, MaxMem=    33554432 cpu:         0.0
 (Enter /opt/g09/g09/l703.exe)
 Compute integral first derivatives, UseDBF=F ICtDFT=           0.
 Integral derivatives from FoFJK, PRISM(SPDF).
 Calling FoFJK, ICntrl=      2127 FMM=F ISym2X=0 I1Cent= 0 IOpClX= 0 NMat=1 NMatS=1 NMatT=0.
 FoFJK:  IHMeth= 8 ICntrl=    2127 DoSepK=F KAlg= 0 I1Cent=   0 FoldK=F
 IRaf=         0 NMat=   1 IRICut=       1 DoRegI=T DoRafI=F ISym2E= 0.
 FoFCou: FMM=F IPFlag=           0 FMFlag=      100000 FMFlg1=         800
         NFxFlg=           0 DoJE=F BraDBF=F KetDBF=F FulRan=T
         wScrn=  0.000000 ICntrl=    2127 IOpCl=  0 I1Cent=           0 NGrid=           0
         NMat0=    1 NMatS0=      1 NMatT0=    0 NMatD0=    1 NMtDS0=    0 NMtDT0=    0
 Symmetry not used in FoFCou.
 Leave Link  703 at Wed Mar 16 11:15:44 2016, MaxMem=    33554432 cpu:         0.0
 (Enter /opt/g09/g09/l716.exe)
 Dipole        =-8.26045541D-02-8.53552833D-02-2.83177553D-03
 ***** Axes restored to original set *****
 -------------------------------------------------------------------
 Center     Atomic                   Forces (Hartrees/Bohr)
 Number     Number              X              Y              Z
 -------------------------------------------------------------------
      1        6           0.033457656    0.000388188    0.022312488
      2        6          -0.066614711   -0.045570841    0.004965776
      3        8           0.003907207   -0.007001672   -0.008231636
      4        6           0.014247361   -0.034626754    0.019064902
      5        6           0.029231240    0.040381643   -0.041370681
      6        1          -0.031703721   -0.029387982    0.015802155
      7        1          -0.003066942    0.005406145   -0.001375170
      8        1           0.030405889    0.060330630   -0.004818954
      9        1          -0.009863979    0.010080644   -0.006348880
 -------------------------------------------------------------------
 Cartesian Forces:  Max     0.066614711 RMS     0.028045103
 Leave Link  716 at Wed Mar 16 11:15:44 2016, MaxMem=    33554432 cpu:         0.0
 (Enter /opt/g09/g09/l103.exe)

 GradGradGradGradGradGradGradGradGradGradGradGradGradGradGradGradGradGrad
 Berny optimization.
 FormGI is forming the generalized inverse of G from B-inverse, IUseBI=4.
 Internal  Forces:  Max     0.067684160 RMS     0.015445082
 Search for a local minimum.
 Step number   1 out of a maximum of   48
 All quantities printed in internal units (Hartrees-Bohrs-Radians)
 RMS Force = .15445D-01 SwitMx=.10000D-02 MixMth= 1
 Mixed Optimization -- RFO/linear search
 Second derivative matrix not updated -- first step.
 ITU=  0
     Eigenvalues ---    0.02112   0.02226   0.02289   0.02392   0.02482
     Eigenvalues ---    0.02676   0.14838   0.15699   0.15934   0.15964
     Eigenvalues ---    0.21991   0.22850   0.29798   0.33792   0.38974
     Eigenvalues ---    0.40656   0.43022   0.43851   0.48783   0.49994
     Eigenvalues ---    0.54708
 RFO step:  Lambda=-3.03450560D-02 EMin= 2.11173000D-02
 Linear search not attempted -- first point.
 Iteration  1 RMS(Cart)=  0.05037222 RMS(Int)=  0.00308155
 Iteration  2 RMS(Cart)=  0.00261131 RMS(Int)=  0.00164830
 Iteration  3 RMS(Cart)=  0.00000280 RMS(Int)=  0.00164830
 Iteration  4 RMS(Cart)=  0.00000000 RMS(Int)=  0.00164830
 ITry= 1 IFail=0 DXMaxC= 1.95D-01 DCOld= 1.00D+10 DXMaxT= 3.00D-01 DXLimC= 3.00D+00 Rises=F
 Variable       Old X    -DE/DX   Delta X   Delta X   Delta X     New X
                                 (Linear)    (Quad)   (Total)
    R1        2.53962   0.02607   0.00000   0.04689   0.04688   2.58650
    R2        2.67530  -0.00754   0.00000  -0.01464  -0.01432   2.66098
    R3        1.99671  -0.01439   0.00000  -0.03425  -0.03425   1.96246
    R4        2.59361  -0.02108   0.00000  -0.03873  -0.03904   2.55456
    R5        2.15067  -0.06768   0.00000  -0.20615  -0.20615   1.94452
    R6        2.58044  -0.00584   0.00000  -0.01353  -0.01372   2.56672
    R7        2.61467  -0.01079   0.00000  -0.02349  -0.02331   2.59136
    R8        1.94342   0.00620   0.00000   0.01347   0.01347   1.95689
    R9        2.07682  -0.04480   0.00000  -0.12164  -0.12164   1.95518
    A1        1.85023  -0.00305   0.00000   0.00065  -0.00165   1.84859
    A2        2.21895   0.00376   0.00000   0.01750   0.01598   2.23493
    A3        2.20122   0.00018   0.00000  -0.00177  -0.00325   2.19797
    A4        1.93628   0.00122   0.00000   0.01301   0.01179   1.94807
    A5        2.32240  -0.00036   0.00000  -0.00476  -0.00429   2.31811
    A6        2.02211  -0.00078   0.00000  -0.00693  -0.00641   2.01570
    A7        1.86815  -0.00617   0.00000  -0.02773  -0.02973   1.83841
    A8        1.88893   0.01662   0.00000   0.05793   0.05563   1.94456
    A9        2.07626  -0.00876   0.00000  -0.02835  -0.02932   2.04694
   A10        2.31402  -0.00743   0.00000  -0.02137  -0.02234   2.29168
   A11        1.87163  -0.00744   0.00000  -0.02195  -0.02674   1.84489
   A12        2.20932   0.00176   0.00000   0.01874   0.01441   2.22373
   A13        2.15300   0.00831   0.00000   0.05429   0.05009   2.20309
    D1        0.05105  -0.00357   0.00000  -0.06742  -0.06824  -0.01719
    D2       -3.01091  -0.00500   0.00000  -0.08926  -0.08903  -3.09993
    D3        3.02870   0.00200   0.00000   0.03614   0.03544   3.06414
    D4       -0.03326   0.00057   0.00000   0.01431   0.01465  -0.01861
    D5       -0.11248   0.00796   0.00000   0.13623   0.13361   0.02113
    D6       -2.92788  -0.00178   0.00000  -0.03661  -0.03718  -2.96505
    D7       -3.09229   0.00202   0.00000   0.03168   0.03043  -3.06186
    D8        0.37550  -0.00772   0.00000  -0.14115  -0.14035   0.23514
    D9        0.03072  -0.00170   0.00000  -0.02630  -0.02480   0.00592
   D10        3.10768  -0.00053   0.00000  -0.00866  -0.00798   3.09970
   D11       -0.10220   0.00538   0.00000   0.10908   0.11056   0.00835
   D12        3.12327   0.00109   0.00000   0.02362   0.02380  -3.13612
   D13        0.13344  -0.00756   0.00000  -0.15025  -0.15210  -0.01866
   D14        2.96187   0.00042   0.00000   0.00813   0.00804   2.96992
   D15       -3.10788  -0.00225   0.00000  -0.04815  -0.04896   3.12634
   D16       -0.27945   0.00572   0.00000   0.11022   0.11118  -0.16827
         Item               Value     Threshold  Converged?
 Maximum Force            0.067684     0.000450     NO 
 RMS     Force            0.015445     0.000300     NO 
 Maximum Displacement     0.195210     0.001800     NO 
 RMS     Displacement     0.052043     0.001200     NO 
 Predicted change in Energy=-1.788836D-02
 Lowest energy point so far.  Saving SCF results.
 GradGradGradGradGradGradGradGradGradGradGradGradGradGradGradGradGradGrad

 Leave Link  103 at Wed Mar 16 11:15:44 2016, MaxMem=    33554432 cpu:         0.0
 (Enter /opt/g09/g09/l202.exe)
                          Input orientation:                          
 ---------------------------------------------------------------------
 Center     Atomic      Atomic             Coordinates (Angstroms)
 Number     Number       Type             X           Y           Z
 ---------------------------------------------------------------------
      1          6           0        0.969028   -0.710383    0.028926
      2          6           0       -0.345724   -1.087292   -0.023520
      3          8           0       -1.170856   -0.016533   -0.030126
      4          6           0       -0.353227    1.067238    0.011823
      5          6           0        0.967157    0.697738    0.033904
      6          1           0        1.780357    1.327777   -0.076672
      7          1           0       -0.802060    2.000431    0.019060
      8          1           0       -0.811136   -2.004967   -0.013441
      9          1           0        1.806704   -1.318997    0.108587
 ---------------------------------------------------------------------
                    Distance matrix (angstroms):
                    1          2          3          4          5
     1  C    0.000000
     2  C    1.368717   0.000000
     3  O    2.250337   1.351817   0.000000
     4  C    2.215533   2.154833   1.358248   0.000000
     5  C    1.408130   2.216594   2.255079   1.371288   0.000000
     6  H    2.196247   3.218013   3.243300   2.151253   1.034636
     7  H    3.238110   3.121552   2.050993   1.035544   2.197124
     8  H    2.201529   1.028998   2.020779   3.106246   3.235611
     9  H    1.038488   2.168891   3.252924   3.220060   2.185781
                    6          7          8          9
     6  H    0.000000
     7  H    2.670300   0.000000
     8  H    4.222206   4.005540   0.000000
     9  H    2.653381   4.222826   2.708972   0.000000
 Stoichiometry    C4H4O
 Framework group  C1[X(C4H4O)]
 Deg. of freedom    21
 Full point group                 C1      NOp   1
 RotChk:  IX=0 Diff= 1.37D+00
 Largest Abelian subgroup         C1      NOp   1
 Largest concise Abelian subgroup C1      NOp   1
                         Standard orientation:                         
 ---------------------------------------------------------------------
 Center     Atomic      Atomic             Coordinates (Angstroms)
 Number     Number       Type             X           Y           Z
 ---------------------------------------------------------------------
      1          6           0        0.314816    1.153625   -0.005256
      2          6           0       -0.946459    0.622471    0.015927
      3          8           0       -0.917901   -0.729007    0.005882
      4          6           0        0.399168   -1.060282   -0.014696
      5          6           0        1.196276    0.055510   -0.007084
      6          1           0        2.222465    0.073001    0.123690
      7          1           0        0.634815   -2.068538   -0.030193
      8          1           0       -1.884070    1.045788   -0.006989
      9          1           0        0.587188    2.153860   -0.066908
 ---------------------------------------------------------------------
 Rotational constants (GHZ):      9.8342863      9.1617587      4.7454552
 Leave Link  202 at Wed Mar 16 11:15:44 2016, MaxMem=    33554432 cpu:         0.0
 (Enter /opt/g09/g09/l301.exe)

 Semi-emprical parameters in input format:
 Method=8 CoreType=1 PeptideFC=0.0114505045 RIJScale=0.5291772086
 ****
 H       
 PQN=1 NValence=1 F0ss=0.4721553327 ZetaOverlap=1.1880780000 U=-0.4188110042
 Beta=-0.2441223054 CoreKO=1.0589197790 KON=0,0,0,1.0589197790 KON=1,0,1,1.0589197790
 KON=0,1,1,1.0589197790 KON=2,1,1,0.9843725478 EISol=-0.4188110042 EHeat=0.0830298228
 Alpha=1.6558439973
 GCore=0.0080630777,1.4001425905,2.2928194418
 GCore=0.0003534810,1.5268383192,3.4015070392
 GCore=-0.0012733648,0.5600570362,3.9684248791
 ****
 C       
 PQN=2,2 NValence=4 F0ss=0.4517579033 F0sp=0.4215147623 F0pp=0.3426493745 F2pp=0.1898715146
 G1sp=0.2679025821
 ZetaOverlap=1.8086650000,1.6851160000
 U=-1.9120180828,-1.4557965594
 Beta=-0.5775444233,-0.2836784428 DDN=0,1,0.8236736000 DDN=1,1,0.7268015000
 CoreKO=1.1124284736 KON=0,0,0,1.1124284736 KON=1,0,1,0.8219701441 KON=0,1,1,1.0275270532
 KON=2,1,1,0.8007689454 EISol=-4.4398989268 EHeat=0.2723305520 Alpha=1.4014062429
 DipHyp=1.6472524267
 GCore=0.0007885612,1.4001425905,2.9110675965
 GCore=0.0031892455,1.4001425905,3.1888237693
 GCore=-0.0013931594,1.4001425905,3.7775512852
 GCore=-0.0000875022,1.4001425905,5.0077742521
 ****
 O       
 PQN=2,2 NValence=6 F0ss=0.5501774639 F0sp=0.5321302318 F0pp=0.4958708974 F2pp=0.2358081713
 G1sp=0.4479942254
 ZetaOverlap=3.1080320000,2.5240390000
 U=-3.5951865036,-2.8760896690
 Beta=-1.0685440671,-1.0757546603 DDN=0,1,0.4988896000 DDN=1,1,0.4375728488
 CoreKO=0.8822957477 KON=0,0,0,0.8822957477 KON=1,0,1,0.5019543089 KON=0,1,1,0.8822957477
 KON=2,1,1,0.5515584117 EISol=-11.6164441184 EHeat=0.0949133088 Alpha=2.3576807890
 DipHyp=0.9977217969
 GCore=0.0204109328,1.4863573494,1.6023328031
 GCore=0.0059072227,2.0615561427,2.7307884326
 ****
 
 Standard basis: VSTO-6G (5D, 7F)
 Ernie: Thresh=  0.10000D-02 Tol=  0.10000D-05 Strict=F.
  NNHCO=     0 NNPyr=     0 NCTC=     0               EPep=         0.000000000
    EC=        69.117360479  ECS=         1.848618590   EG=         0.379952451
   EHC=         0.000000000  EAt=       -31.051283842  AtH=         1.516354808
 EPDDG=         0.000000000  ECC=        71.345931520 EAtT=        32.567638650
 There are    24 symmetry adapted cartesian basis functions of A   symmetry.
 There are    24 symmetry adapted basis functions of A   symmetry.
    24 basis functions,   144 primitive gaussians,    24 cartesian basis functions
    13 alpha electrons       13 beta electrons
       nuclear repulsion energy       103.9135701705 Hartrees.
 IExCor=    0 DFT=F Ex=HF Corr=None ExCW=0 ScaHFX=  1.000000
 ScaDFX=  1.000000  1.000000  1.000000  1.000000 ScalE2=  1.000000  1.000000
 IRadAn=      0 IRanWt=     -1 IRanGd=            0 ICorTp=0 IEmpDi=  4
 Integral buffers will be    131072 words long.
 Regular integral format.
 Two-electron integral symmetry is turned off.
 Leave Link  301 at Wed Mar 16 11:15:44 2016, MaxMem=    33554432 cpu:         0.0
 (Enter /opt/g09/g09/l302.exe)
 Do NDO integrals.
 NPDir=0 NMtPBC=     1 NCelOv=     1 NCel=       1 NClECP=     1 NCelD=      1
         NCelK=      1 NCelE2=     1 NClLst=     1 CellRange=     0.0.
 One-electron integrals computed using PRISM.
 NBasis=    24 RedAO= F EigKep=  0.00D+00  NBF=    24
 NBsUse=    24 1.00D-04 EigRej=  0.00D+00 NBFU=    24
 Leave Link  302 at Wed Mar 16 11:15:44 2016, MaxMem=    33554432 cpu:         0.0
 (Enter /opt/g09/g09/l303.exe)
 DipDrv:  MaxL=1.
 Leave Link  303 at Wed Mar 16 11:15:44 2016, MaxMem=    33554432 cpu:         0.0
 (Enter /opt/g09/g09/l401.exe)
 Initial guess from the checkpoint file:  "/opt/g09/scratch/Gau-1768.chk"
 B after Tr=     0.000000    0.000000    0.000000
         Rot=    0.875159   -0.000122    0.000320    0.483834 Ang= -57.87 deg.
 Guess basis will be translated and rotated to current coordinates.
 JPrj=0 DoOrth=T DoCkMO=T.
 Leave Link  401 at Wed Mar 16 11:15:44 2016, MaxMem=    33554432 cpu:         0.0
 (Enter /opt/g09/g09/l502.exe)
 Closed shell SCF:
 Using DIIS extrapolation, IDIIS=  1040.
 Overlap will be assumed to be unity.
 Two-electron integral symmetry not used.
 Keep J ints in memory in canonical form, NReq=888082.
 IVT=       79475 IEndB=       79475 NGot=    33554432 MDV=    33473473
 LenX=    33473473 LenY=    33472456
 Requested convergence on RMS density matrix=1.00D-08 within 128 cycles.
 Requested convergence on MAX density matrix=1.00D-06.
 Requested convergence on             energy=1.00D-06.
 No special actions if energy rises.
 FoFCou: FMM=F IPFlag=           0 FMFlag=           0 FMFlg1=           0
         NFxFlg=           0 DoJE=F BraDBF=F KetDBF=F FulRan=T
         wScrn=  0.000000 ICntrl=     600 IOpCl=  2 I1Cent=           0 NGrid=           0
         NMat0=    1 NMatS0=     54 NMatT0=    0 NMatD0=    1 NMtDS0=    0 NMtDT0=    0
 Symmetry not used in FoFCou.

 Cycle   1  Pass 1  IDiag  1:
 E=-0.654960731248536    
 DIIS: error= 9.61D-03 at cycle   1 NSaved=   1.
 NSaved= 1 IEnMin= 1 EnMin=-0.654960731248536     IErMin= 1 ErrMin= 9.61D-03
 ErrMax= 9.61D-03  0.00D+00 EMaxC= 1.00D-01 BMatC= 2.34D-03 BMatP= 2.34D-03
 IDIUse=3 WtCom= 9.04D-01 WtEn= 9.61D-02
 Coeff-Com:  0.100D+01
 Coeff-En:   0.100D+01
 Coeff:      0.100D+01
 GapD=    2.000 DampG=2.000 DampE=1.000 DampFc=2.0000 IDamp=-1.
 RMSDP=3.27D-03 MaxDP=1.62D-02              OVMax= 0.00D+00

 Cycle   2  Pass 1  IDiag  3:
 E=-0.661851084106417     Delta-E=       -0.006890352858 Rises=F Damp=F
 DIIS: error= 3.33D-03 at cycle   2 NSaved=   2.
 NSaved= 2 IEnMin= 2 EnMin=-0.661851084106417     IErMin= 2 ErrMin= 3.33D-03
 ErrMax= 3.33D-03  0.00D+00 EMaxC= 1.00D-01 BMatC= 2.96D-04 BMatP= 2.34D-03
 IDIUse=3 WtCom= 9.67D-01 WtEn= 3.33D-02
 Coeff-Com: -0.444D+00 0.144D+01
 Coeff-En:   0.000D+00 0.100D+01
 Coeff:     -0.429D+00 0.143D+01
 Gap=     0.390 Goal=   None    Shift=    0.000
 RMSDP=2.05D-03 MaxDP=1.03D-02 DE=-6.89D-03 OVMax= 1.48D-02

 Cycle   3  Pass 1  IDiag  3:
 E=-0.663245762567570     Delta-E=       -0.001394678461 Rises=F Damp=F
 DIIS: error= 6.73D-04 at cycle   3 NSaved=   3.
 NSaved= 3 IEnMin= 3 EnMin=-0.663245762567570     IErMin= 3 ErrMin= 6.73D-04
 ErrMax= 6.73D-04  0.00D+00 EMaxC= 1.00D-01 BMatC= 1.64D-05 BMatP= 2.96D-04
 IDIUse=3 WtCom= 9.93D-01 WtEn= 6.73D-03
 Coeff-Com:  0.216D+00-0.849D+00 0.163D+01
 Coeff-En:   0.000D+00 0.000D+00 0.100D+01
 Coeff:      0.214D+00-0.844D+00 0.163D+01
 Gap=     0.390 Goal=   None    Shift=    0.000
 RMSDP=7.30D-04 MaxDP=3.13D-03 DE=-1.39D-03 OVMax= 4.41D-03

 Cycle   4  Pass 1  IDiag  3:
 E=-0.663355378584782     Delta-E=       -0.000109616017 Rises=F Damp=F
 DIIS: error= 9.82D-05 at cycle   4 NSaved=   4.
 NSaved= 4 IEnMin= 4 EnMin=-0.663355378584782     IErMin= 4 ErrMin= 9.82D-05
 ErrMax= 9.82D-05  0.00D+00 EMaxC= 1.00D-01 BMatC= 4.72D-07 BMatP= 1.64D-05
 IDIUse=1 WtCom= 1.00D+00 WtEn= 0.00D+00
 Coeff-Com: -0.539D-01 0.222D+00-0.520D+00 0.135D+01
 Coeff:     -0.539D-01 0.222D+00-0.520D+00 0.135D+01
 Gap=     0.390 Goal=   None    Shift=    0.000
 RMSDP=1.19D-04 MaxDP=5.95D-04 DE=-1.10D-04 OVMax= 9.16D-04

 Cycle   5  Pass 1  IDiag  3:
 E=-0.663358862664680     Delta-E=       -0.000003484080 Rises=F Damp=F
 DIIS: error= 4.40D-05 at cycle   5 NSaved=   5.
 NSaved= 5 IEnMin= 5 EnMin=-0.663358862664680     IErMin= 5 ErrMin= 4.40D-05
 ErrMax= 4.40D-05  0.00D+00 EMaxC= 1.00D-01 BMatC= 6.86D-08 BMatP= 4.72D-07
 IDIUse=1 WtCom= 1.00D+00 WtEn= 0.00D+00
 Coeff-Com:  0.529D-02-0.251D-01 0.904D-01-0.609D+00 0.154D+01
 Coeff:      0.529D-02-0.251D-01 0.904D-01-0.609D+00 0.154D+01
 Gap=     0.390 Goal=   None    Shift=    0.000
 RMSDP=5.48D-05 MaxDP=3.57D-04 DE=-3.48D-06 OVMax= 4.64D-04

 Cycle   6  Pass 1  IDiag  3:
 E=-0.663359483043962     Delta-E=       -0.000000620379 Rises=F Damp=F
 DIIS: error= 2.04D-05 at cycle   6 NSaved=   6.
 NSaved= 6 IEnMin= 6 EnMin=-0.663359483043962     IErMin= 6 ErrMin= 2.04D-05
 ErrMax= 2.04D-05  0.00D+00 EMaxC= 1.00D-01 BMatC= 1.20D-08 BMatP= 6.86D-08
 IDIUse=1 WtCom= 1.00D+00 WtEn= 0.00D+00
 Coeff-Com:  0.390D-02-0.140D-01 0.121D-01 0.220D+00-0.102D+01 0.180D+01
 Coeff:      0.390D-02-0.140D-01 0.121D-01 0.220D+00-0.102D+01 0.180D+01
 Gap=     0.390 Goal=   None    Shift=    0.000
 RMSDP=2.84D-05 MaxDP=2.53D-04 DE=-6.20D-07 OVMax= 2.42D-04

 Cycle   7  Pass 1  IDiag  3:
 E=-0.663359612912458     Delta-E=       -0.000000129868 Rises=F Damp=F
 DIIS: error= 8.56D-06 at cycle   7 NSaved=   7.
 NSaved= 7 IEnMin= 7 EnMin=-0.663359612912458     IErMin= 7 ErrMin= 8.56D-06
 ErrMax= 8.56D-06  0.00D+00 EMaxC= 1.00D-01 BMatC= 2.32D-09 BMatP= 1.20D-08
 IDIUse=1 WtCom= 1.00D+00 WtEn= 0.00D+00
 Coeff-Com: -0.468D-02 0.176D-01-0.256D-01-0.123D+00 0.756D+00-0.173D+01
 Coeff-Com:  0.211D+01
 Coeff:     -0.468D-02 0.176D-01-0.256D-01-0.123D+00 0.756D+00-0.173D+01
 Coeff:      0.211D+01
 Gap=     0.390 Goal=   None    Shift=    0.000
 RMSDP=1.42D-05 MaxDP=1.36D-04 DE=-1.30D-07 OVMax= 1.29D-04

 Cycle   8  Pass 1  IDiag  3:
 E=-0.663359641144652     Delta-E=       -0.000000028232 Rises=F Damp=F
 DIIS: error= 3.35D-06 at cycle   8 NSaved=   8.
 NSaved= 8 IEnMin= 8 EnMin=-0.663359641144652     IErMin= 8 ErrMin= 3.35D-06
 ErrMax= 3.35D-06  0.00D+00 EMaxC= 1.00D-01 BMatC= 4.51D-10 BMatP= 2.32D-09
 IDIUse=1 WtCom= 1.00D+00 WtEn= 0.00D+00
 Coeff-Com:  0.435D-02-0.166D-01 0.257D-01 0.920D-01-0.635D+00 0.156D+01
 Coeff-Com: -0.230D+01 0.228D+01
 Coeff:      0.435D-02-0.166D-01 0.257D-01 0.920D-01-0.635D+00 0.156D+01
 Coeff:     -0.230D+01 0.228D+01
 Gap=     0.390 Goal=   None    Shift=    0.000
 RMSDP=7.21D-06 MaxDP=6.63D-05 DE=-2.82D-08 OVMax= 7.12D-05

 Cycle   9  Pass 1  IDiag  3:
 E=-0.663359647212062     Delta-E=       -0.000000006067 Rises=F Damp=F
 DIIS: error= 1.39D-06 at cycle   9 NSaved=   9.
 NSaved= 9 IEnMin= 9 EnMin=-0.663359647212062     IErMin= 9 ErrMin= 1.39D-06
 ErrMax= 1.39D-06  0.00D+00 EMaxC= 1.00D-01 BMatC= 5.60D-11 BMatP= 4.51D-10
 IDIUse=1 WtCom= 1.00D+00 WtEn= 0.00D+00
 Coeff-Com: -0.252D-02 0.961D-02-0.153D-01-0.461D-01 0.340D+00-0.857D+00
 Coeff-Com:  0.134D+01-0.168D+01 0.191D+01
 Coeff:     -0.252D-02 0.961D-02-0.153D-01-0.461D-01 0.340D+00-0.857D+00
 Coeff:      0.134D+01-0.168D+01 0.191D+01
 Gap=     0.390 Goal=   None    Shift=    0.000
 RMSDP=2.66D-06 MaxDP=2.53D-05 DE=-6.07D-09 OVMax= 2.44D-05

 Cycle  10  Pass 1  IDiag  3:
 E=-0.663359647941107     Delta-E=       -0.000000000729 Rises=F Damp=F
 DIIS: error= 3.12D-07 at cycle  10 NSaved=  10.
 NSaved=10 IEnMin=10 EnMin=-0.663359647941107     IErMin=10 ErrMin= 3.12D-07
 ErrMax= 3.12D-07  0.00D+00 EMaxC= 1.00D-01 BMatC= 4.73D-12 BMatP= 5.60D-11
 IDIUse=1 WtCom= 1.00D+00 WtEn= 0.00D+00
 Coeff-Com:  0.114D-02-0.434D-02 0.708D-02 0.184D-01-0.144D+00 0.369D+00
 Coeff-Com: -0.589D+00 0.800D+00-0.119D+01 0.173D+01
 Coeff:      0.114D-02-0.434D-02 0.708D-02 0.184D-01-0.144D+00 0.369D+00
 Coeff:     -0.589D+00 0.800D+00-0.119D+01 0.173D+01
 Gap=     0.390 Goal=   None    Shift=    0.000
 RMSDP=6.43D-07 MaxDP=5.59D-06 DE=-7.29D-10 OVMax= 4.93D-06

 Cycle  11  Pass 1  IDiag  3:
 E=-0.663359647989665     Delta-E=       -0.000000000049 Rises=F Damp=F
 DIIS: error= 7.21D-08 at cycle  11 NSaved=  11.
 NSaved=11 IEnMin=11 EnMin=-0.663359647989665     IErMin=11 ErrMin= 7.21D-08
 ErrMax= 7.21D-08  0.00D+00 EMaxC= 1.00D-01 BMatC= 2.40D-13 BMatP= 4.73D-12
 IDIUse=1 WtCom= 1.00D+00 WtEn= 0.00D+00
 Coeff-Com: -0.269D-03 0.103D-02-0.174D-02-0.345D-02 0.308D-01-0.809D-01
 Coeff-Com:  0.132D+00-0.191D+00 0.324D+00-0.674D+00 0.146D+01
 Coeff:     -0.269D-03 0.103D-02-0.174D-02-0.345D-02 0.308D-01-0.809D-01
 Coeff:      0.132D+00-0.191D+00 0.324D+00-0.674D+00 0.146D+01
 Gap=     0.390 Goal=   None    Shift=    0.000
 RMSDP=1.12D-07 MaxDP=8.06D-07 DE=-4.86D-11 OVMax= 9.51D-07

 Cycle  12  Pass 1  IDiag  3:
 E=-0.663359647991683     Delta-E=       -0.000000000002 Rises=F Damp=F
 DIIS: error= 1.67D-08 at cycle  12 NSaved=  12.
 NSaved=12 IEnMin=12 EnMin=-0.663359647991683     IErMin=12 ErrMin= 1.67D-08
 ErrMax= 1.67D-08  0.00D+00 EMaxC= 1.00D-01 BMatC= 1.25D-14 BMatP= 2.40D-13
 IDIUse=1 WtCom= 1.00D+00 WtEn= 0.00D+00
 Coeff-Com:  0.411D-04-0.159D-03 0.286D-03 0.242D-03-0.363D-02 0.102D-01
 Coeff-Com: -0.176D-01 0.276D-01-0.542D-01 0.147D+00-0.516D+00 0.141D+01
 Coeff:      0.411D-04-0.159D-03 0.286D-03 0.242D-03-0.363D-02 0.102D-01
 Coeff:     -0.176D-01 0.276D-01-0.542D-01 0.147D+00-0.516D+00 0.141D+01
 Gap=     0.390 Goal=   None    Shift=    0.000
 RMSDP=2.05D-08 MaxDP=1.05D-07 DE=-2.02D-12 OVMax= 1.57D-07

 Cycle  13  Pass 1  IDiag  3:
 E=-0.663359647991726     Delta-E=        0.000000000000 Rises=F Damp=F
 DIIS: error= 3.94D-09 at cycle  13 NSaved=  13.
 NSaved=13 IEnMin=13 EnMin=-0.663359647991726     IErMin=13 ErrMin= 3.94D-09
 ErrMax= 3.94D-09  0.00D+00 EMaxC= 1.00D-01 BMatC= 8.61D-16 BMatP= 1.25D-14
 IDIUse=1 WtCom= 1.00D+00 WtEn= 0.00D+00
 Coeff-Com: -0.207D-05 0.871D-05-0.243D-04 0.121D-03-0.320D-03 0.499D-03
 Coeff-Com: -0.419D-03-0.431D-03 0.476D-02-0.274D-01 0.152D+00-0.668D+00
 Coeff-Com:  0.154D+01
 Coeff:     -0.207D-05 0.871D-05-0.243D-04 0.121D-03-0.320D-03 0.499D-03
 Coeff:     -0.419D-03-0.431D-03 0.476D-02-0.274D-01 0.152D+00-0.668D+00
 Coeff:      0.154D+01
 Gap=     0.390 Goal=   None    Shift=    0.000
 RMSDP=5.83D-09 MaxDP=2.83D-08 DE=-4.26D-14 OVMax= 4.79D-08

 Cycle  14  Pass 2  IDiag  1:
 SCF Done:  E(RAM1) = -0.663359647992     A.U. after   14 cycles
            NFock= 13  Conv=0.58D-08     -V/T= 0.9610
 KE=-1.701915817983D+01 PE=-1.724835650574D+02 EE= 8.492579341869D+01
 Leave Link  502 at Wed Mar 16 11:15:44 2016, MaxMem=    33554432 cpu:         0.0
 (Enter /opt/g09/g09/l701.exe)
 Compute integral first derivatives.
 ... and contract with generalized density number  0.
 Leave Link  701 at Wed Mar 16 11:15:44 2016, MaxMem=    33554432 cpu:         0.0
 (Enter /opt/g09/g09/l702.exe)
 L702 exits ... SP integral derivatives will be done elsewhere.
 Leave Link  702 at Wed Mar 16 11:15:44 2016, MaxMem=    33554432 cpu:         0.0
 (Enter /opt/g09/g09/l703.exe)
 Compute integral first derivatives, UseDBF=F ICtDFT=           0.
 Integral derivatives from FoFJK, PRISM(SPDF).
 Calling FoFJK, ICntrl=      2127 FMM=F ISym2X=0 I1Cent= 0 IOpClX= 0 NMat=1 NMatS=1 NMatT=0.
 FoFJK:  IHMeth= 8 ICntrl=    2127 DoSepK=F KAlg= 0 I1Cent=   0 FoldK=F
 IRaf=         0 NMat=   1 IRICut=       1 DoRegI=T DoRafI=F ISym2E= 0.
 FoFCou: FMM=F IPFlag=           0 FMFlag=      100000 FMFlg1=         800
         NFxFlg=           0 DoJE=F BraDBF=F KetDBF=F FulRan=T
         wScrn=  0.000000 ICntrl=    2127 IOpCl=  0 I1Cent=           0 NGrid=           0
         NMat0=    1 NMatS0=      1 NMatT0=    0 NMatD0=    1 NMtDS0=    0 NMtDT0=    0
 Symmetry not used in FoFCou.
 Leave Link  703 at Wed Mar 16 11:15:44 2016, MaxMem=    33554432 cpu:         0.0
 (Enter /opt/g09/g09/l716.exe)
 Dipole        =-7.13934538D-02-7.11719245D-02 1.46583084D-02
 ***** Axes restored to original set *****
 -------------------------------------------------------------------
 Center     Atomic                   Forces (Hartrees/Bohr)
 Number     Number              X              Y              Z
 -------------------------------------------------------------------
      1        6           0.006531836   -0.003080889    0.003768772
      2        6          -0.006201446   -0.005380817    0.004814105
      3        8           0.008899842    0.008773590    0.000953458
      4        6          -0.009453956    0.004662274   -0.001196815
      5        6          -0.002128953    0.002646287   -0.010075513
      6        1           0.004056173    0.000638848    0.006754825
      7        1          -0.000595240    0.003153723   -0.000156506
      8        1          -0.000584728   -0.011053241   -0.001755335
      9        1          -0.000523528   -0.000359775   -0.003106992
 -------------------------------------------------------------------
 Cartesian Forces:  Max     0.011053241 RMS     0.005263797
 Leave Link  716 at Wed Mar 16 11:15:44 2016, MaxMem=    33554432 cpu:         0.0
 (Enter /opt/g09/g09/l103.exe)

 GradGradGradGradGradGradGradGradGradGradGradGradGradGradGradGradGradGrad
 Berny optimization.
 Using GEDIIS/GDIIS optimizer.
 FormGI is forming the generalized inverse of G from B-inverse, IUseBI=4.
 Internal  Forces:  Max     0.010104713 RMS     0.003935983
 Search for a local minimum.
 Step number   2 out of a maximum of   48
 All quantities printed in internal units (Hartrees-Bohrs-Radians)
 RMS Force = .39360D-02 SwitMx=.10000D-02 MixMth= 1
 Mixed Optimization -- RFO/linear search
 Update second derivatives using D2CorX and points    1    2
 DE= -1.47D-02 DEPred=-1.79D-02 R= 8.21D-01
 TightC=F SS=  1.41D+00  RLast= 4.22D-01 DXNew= 5.0454D-01 1.2653D+00
 Trust test= 8.21D-01 RLast= 4.22D-01 DXMaxT set to 5.05D-01
 ITU=  1  0
 Use linear search instead of GDIIS.
     Eigenvalues ---    0.02030   0.02213   0.02277   0.02428   0.02606
     Eigenvalues ---    0.02683   0.15584   0.15934   0.15983   0.16007
     Eigenvalues ---    0.21910   0.23429   0.32426   0.34774   0.38818
     Eigenvalues ---    0.41516   0.42957   0.43475   0.49147   0.51948
     Eigenvalues ---    0.54051
 RFO step:  Lambda=-3.16127321D-03 EMin= 2.02964902D-02
 Quartic linear search produced a step of -0.07221.
 Iteration  1 RMS(Cart)=  0.02644699 RMS(Int)=  0.00146066
 Iteration  2 RMS(Cart)=  0.00100983 RMS(Int)=  0.00090310
 Iteration  3 RMS(Cart)=  0.00000077 RMS(Int)=  0.00090310
 ITry= 1 IFail=0 DXMaxC= 8.99D-02 DCOld= 1.00D+10 DXMaxT= 5.05D-01 DXLimC= 3.00D+00 Rises=F
 Variable       Old X    -DE/DX   Delta X   Delta X   Delta X     New X
                                 (Linear)    (Quad)   (Total)
    R1        2.58650   0.00512  -0.00339   0.01508   0.01163   2.59813
    R2        2.66098   0.00799   0.00103   0.01483   0.01627   2.67725
    R3        1.96246  -0.00045   0.00247  -0.00555  -0.00308   1.95938
    R4        2.55456   0.00778   0.00282   0.00985   0.01222   2.56679
    R5        1.94452   0.01010   0.01488   0.00326   0.01814   1.96267
    R6        2.56672  -0.00133   0.00099  -0.00447  -0.00371   2.56301
    R7        2.59136   0.00495   0.00168   0.00534   0.00734   2.59869
    R8        1.95689   0.00310  -0.00097   0.00835   0.00738   1.96427
    R9        1.95518   0.00286   0.00878  -0.00843   0.00035   1.95553
    A1        1.84859   0.00092   0.00012   0.00474   0.00579   1.85437
    A2        2.23493  -0.00120  -0.00115  -0.00381  -0.00560   2.22933
    A3        2.19797   0.00031   0.00023   0.00174   0.00132   2.19929
    A4        1.94807  -0.00707  -0.00085  -0.02429  -0.02531   1.92276
    A5        2.31811  -0.00071   0.00031  -0.01048  -0.01077   2.30734
    A6        2.01570   0.00784   0.00046   0.03753   0.03739   2.05308
    A7        1.83841   0.00895   0.00215   0.02919   0.03152   1.86993
    A8        1.94456  -0.00520  -0.00402  -0.01682  -0.01999   1.92457
    A9        2.04694   0.00341   0.00212   0.01250   0.01422   2.06116
   A10        2.29168   0.00179   0.00161   0.00437   0.00560   2.29728
   A11        1.84489   0.00241   0.00193   0.00680   0.00769   1.85258
   A12        2.22373  -0.00285  -0.00104  -0.00623  -0.01046   2.21328
   A13        2.20309   0.00082  -0.00362   0.02070   0.01397   2.21706
    D1       -0.01719   0.00054   0.00493   0.00116   0.00618  -0.01101
    D2       -3.09993  -0.00120   0.00643  -0.06196  -0.05526   3.12799
    D3        3.06414   0.00103  -0.00256   0.04852   0.04616   3.11030
    D4       -0.01861  -0.00071  -0.00106  -0.01460  -0.01527  -0.03388
    D5        0.02113  -0.00050  -0.00965   0.01460   0.00517   0.02630
    D6       -2.96505  -0.00325   0.00268  -0.13051  -0.12661  -3.09167
    D7       -3.06186  -0.00091  -0.00220  -0.03120  -0.03361  -3.09547
    D8        0.23514  -0.00366   0.01013  -0.17631  -0.16539   0.06975
    D9        0.00592  -0.00025   0.00179  -0.01622  -0.01490  -0.00898
   D10        3.09970   0.00096   0.00058   0.03372   0.03508   3.13478
   D11        0.00835  -0.00016  -0.00798   0.02583   0.01810   0.02645
   D12       -3.13612   0.00079  -0.00172   0.04015   0.03910  -3.09702
   D13       -0.01866   0.00047   0.01098  -0.02534  -0.01425  -0.03291
   D14        2.96992   0.00274  -0.00058   0.11442   0.11506   3.08498
   D15        3.12634  -0.00065   0.00354  -0.04230  -0.03904   3.08730
   D16       -0.16827   0.00162  -0.00803   0.09746   0.09027  -0.07799
         Item               Value     Threshold  Converged?
 Maximum Force            0.010105     0.000450     NO 
 RMS     Force            0.003936     0.000300     NO 
 Maximum Displacement     0.089927     0.001800     NO 
 RMS     Displacement     0.026306     0.001200     NO 
 Predicted change in Energy=-1.718849D-03
 Lowest energy point so far.  Saving SCF results.
 GradGradGradGradGradGradGradGradGradGradGradGradGradGradGradGradGradGrad

 Leave Link  103 at Wed Mar 16 11:15:44 2016, MaxMem=    33554432 cpu:         0.0
 (Enter /opt/g09/g09/l202.exe)
                          Input orientation:                          
 ---------------------------------------------------------------------
 Center     Atomic      Atomic             Coordinates (Angstroms)
 Number     Number       Type             X           Y           Z
 ---------------------------------------------------------------------
      1          6           0        0.965986   -0.712751    0.029645
      2          6           0       -0.352771   -1.100458    0.000691
      3          8           0       -1.161091   -0.009284   -0.029258
      4          6           0       -0.358192    1.083605   -0.007855
      5          6           0        0.963429    0.703708    0.001591
      6          1           0        1.790596    1.324765   -0.029085
      7          1           0       -0.807416    2.020688    0.015111
      8          1           0       -0.805167   -2.035339   -0.003869
      9          1           0        1.804869   -1.319922    0.081570
 ---------------------------------------------------------------------
                    Distance matrix (angstroms):
                    1          2          3          4          5
     1  C    0.000000
     2  C    1.374873   0.000000
     3  O    2.241159   1.358285   0.000000
     4  C    2.231983   2.184086   1.356286   0.000000
     5  C    1.416739   2.233248   2.241181   1.375170   0.000000
     6  H    2.198840   3.236759   3.239158   2.162383   1.034823
     7  H    3.258351   3.154118   2.061029   1.039449   2.206923
     8  H    2.210735   1.038598   2.057237   3.150811   3.260421
     9  H    1.036860   2.170280   3.244530   3.234775   2.193057
                    6          7          8          9
     6  H    0.000000
     7  H    2.689968   0.000000
     8  H    4.246048   4.056072   0.000000
     9  H    2.647039   4.241241   2.707658   0.000000
 Stoichiometry    C4H4O
 Framework group  C1[X(C4H4O)]
 Deg. of freedom    21
 Full point group                 C1      NOp   1
 RotChk:  IX=2 Diff= 1.20D+00
 Largest Abelian subgroup         C1      NOp   1
 Largest concise Abelian subgroup C1      NOp   1
                         Standard orientation:                         
 ---------------------------------------------------------------------
 Center     Atomic      Atomic             Coordinates (Angstroms)
 Number     Number       Type             X           Y           Z
 ---------------------------------------------------------------------
      1          6           0       -0.687534    0.979599   -0.007003
      2          6           0       -1.100395   -0.331790    0.001943
      3          8           0       -0.024831   -1.161287    0.007941
      4          6           0        1.083150   -0.379233   -0.008815
      5          6           0        0.728797    0.949385    0.008545
      6          1           0        1.365959    1.763812    0.048437
      7          1           0        2.011149   -0.845854   -0.047991
      8          1           0       -2.043772   -0.766191    0.006692
      9          1           0       -1.278798    1.830763   -0.038686
 ---------------------------------------------------------------------
 Rotational constants (GHZ):      9.6285854      9.2340807      4.7144508
 Leave Link  202 at Wed Mar 16 11:15:44 2016, MaxMem=    33554432 cpu:         0.0
 (Enter /opt/g09/g09/l301.exe)

 Semi-emprical parameters in input format:
 Method=8 CoreType=1 PeptideFC=0.0114505045 RIJScale=0.5291772086
 ****
 H       
 PQN=1 NValence=1 F0ss=0.4721553327 ZetaOverlap=1.1880780000 U=-0.4188110042
 Beta=-0.2441223054 CoreKO=1.0589197790 KON=0,0,0,1.0589197790 KON=1,0,1,1.0589197790
 KON=0,1,1,1.0589197790 KON=2,1,1,0.9843725478 EISol=-0.4188110042 EHeat=0.0830298228
 Alpha=1.6558439973
 GCore=0.0080630777,1.4001425905,2.2928194418
 GCore=0.0003534810,1.5268383192,3.4015070392
 GCore=-0.0012733648,0.5600570362,3.9684248791
 ****
 C       
 PQN=2,2 NValence=4 F0ss=0.4517579033 F0sp=0.4215147623 F0pp=0.3426493745 F2pp=0.1898715146
 G1sp=0.2679025821
 ZetaOverlap=1.8086650000,1.6851160000
 U=-1.9120180828,-1.4557965594
 Beta=-0.5775444233,-0.2836784428 DDN=0,1,0.8236736000 DDN=1,1,0.7268015000
 CoreKO=1.1124284736 KON=0,0,0,1.1124284736 KON=1,0,1,0.8219701441 KON=0,1,1,1.0275270532
 KON=2,1,1,0.8007689454 EISol=-4.4398989268 EHeat=0.2723305520 Alpha=1.4014062429
 DipHyp=1.6472524267
 GCore=0.0007885612,1.4001425905,2.9110675965
 GCore=0.0031892455,1.4001425905,3.1888237693
 GCore=-0.0013931594,1.4001425905,3.7775512852
 GCore=-0.0000875022,1.4001425905,5.0077742521
 ****
 O       
 PQN=2,2 NValence=6 F0ss=0.5501774639 F0sp=0.5321302318 F0pp=0.4958708974 F2pp=0.2358081713
 G1sp=0.4479942254
 ZetaOverlap=3.1080320000,2.5240390000
 U=-3.5951865036,-2.8760896690
 Beta=-1.0685440671,-1.0757546603 DDN=0,1,0.4988896000 DDN=1,1,0.4375728488
 CoreKO=0.8822957477 KON=0,0,0,0.8822957477 KON=1,0,1,0.5019543089 KON=0,1,1,0.8822957477
 KON=2,1,1,0.5515584117 EISol=-11.6164441184 EHeat=0.0949133088 Alpha=2.3576807890
 DipHyp=0.9977217969
 GCore=0.0204109328,1.4863573494,1.6023328031
 GCore=0.0059072227,2.0615561427,2.7307884326
 ****
 
 Standard basis: VSTO-6G (5D, 7F)
 Ernie: Thresh=  0.10000D-02 Tol=  0.10000D-05 Strict=F.
  NNHCO=     0 NNPyr=     0 NCTC=     0               EPep=         0.000000000
    EC=        68.961828153  ECS=         1.822564279   EG=         0.378422447
   EHC=         0.000000000  EAt=       -31.051283842  AtH=         1.516354808
 EPDDG=         0.000000000  ECC=        71.162814879 EAtT=        32.567638650
 There are    24 symmetry adapted cartesian basis functions of A   symmetry.
 There are    24 symmetry adapted basis functions of A   symmetry.
    24 basis functions,   144 primitive gaussians,    24 cartesian basis functions
    13 alpha electrons       13 beta electrons
       nuclear repulsion energy       103.7304535296 Hartrees.
 IExCor=    0 DFT=F Ex=HF Corr=None ExCW=0 ScaHFX=  1.000000
 ScaDFX=  1.000000  1.000000  1.000000  1.000000 ScalE2=  1.000000  1.000000
 IRadAn=      0 IRanWt=     -1 IRanGd=            0 ICorTp=0 IEmpDi=  4
 Integral buffers will be    131072 words long.
 Regular integral format.
 Two-electron integral symmetry is turned off.
 Leave Link  301 at Wed Mar 16 11:15:44 2016, MaxMem=    33554432 cpu:         0.0
 (Enter /opt/g09/g09/l302.exe)
 Do NDO integrals.
 NPDir=0 NMtPBC=     1 NCelOv=     1 NCel=       1 NClECP=     1 NCelD=      1
         NCelK=      1 NCelE2=     1 NClLst=     1 CellRange=     0.0.
 One-electron integrals computed using PRISM.
 NBasis=    24 RedAO= F EigKep=  0.00D+00  NBF=    24
 NBsUse=    24 1.00D-04 EigRej=  0.00D+00 NBFU=    24
 Leave Link  302 at Wed Mar 16 11:15:44 2016, MaxMem=    33554432 cpu:         0.0
 (Enter /opt/g09/g09/l303.exe)
 DipDrv:  MaxL=1.
 Leave Link  303 at Wed Mar 16 11:15:44 2016, MaxMem=    33554432 cpu:         0.0
 (Enter /opt/g09/g09/l401.exe)
 Initial guess from the checkpoint file:  "/opt/g09/scratch/Gau-1768.chk"
 B after Tr=     0.000000    0.000000    0.000000
         Rot=    0.905861    0.000089    0.000034   -0.423576 Ang=  50.12 deg.
 Guess basis will be translated and rotated to current coordinates.
 JPrj=0 DoOrth=T DoCkMO=T.
 Leave Link  401 at Wed Mar 16 11:15:44 2016, MaxMem=    33554432 cpu:         0.0
 (Enter /opt/g09/g09/l502.exe)
 Closed shell SCF:
 Using DIIS extrapolation, IDIIS=  1040.
 Overlap will be assumed to be unity.
 Two-electron integral symmetry not used.
 Keep J ints in memory in canonical form, NReq=888082.
 IVT=       79475 IEndB=       79475 NGot=    33554432 MDV=    33473473
 LenX=    33473473 LenY=    33472456
 Requested convergence on RMS density matrix=1.00D-08 within 128 cycles.
 Requested convergence on MAX density matrix=1.00D-06.
 Requested convergence on             energy=1.00D-06.
 No special actions if energy rises.
 FoFCou: FMM=F IPFlag=           0 FMFlag=           0 FMFlg1=           0
         NFxFlg=           0 DoJE=F BraDBF=F KetDBF=F FulRan=T
         wScrn=  0.000000 ICntrl=     600 IOpCl=  2 I1Cent=           0 NGrid=           0
         NMat0=    1 NMatS0=     54 NMatT0=    0 NMatD0=    1 NMtDS0=    0 NMtDT0=    0
 Symmetry not used in FoFCou.

 Cycle   1  Pass 1  IDiag  1:
 E=-0.663656942918436    
 DIIS: error= 3.45D-03 at cycle   1 NSaved=   1.
 NSaved= 1 IEnMin= 1 EnMin=-0.663656942918436     IErMin= 1 ErrMin= 3.45D-03
 ErrMax= 3.45D-03  0.00D+00 EMaxC= 1.00D-01 BMatC= 2.75D-04 BMatP= 2.75D-04
 IDIUse=3 WtCom= 9.65D-01 WtEn= 3.45D-02
 Coeff-Com:  0.100D+01
 Coeff-En:   0.100D+01
 Coeff:      0.100D+01
 GapD=    2.000 DampG=2.000 DampE=1.000 DampFc=2.0000 IDamp=-1.
 RMSDP=1.27D-03 MaxDP=1.10D-02              OVMax= 0.00D+00

 Cycle   2  Pass 1  IDiag  3:
 E=-0.664618950698667     Delta-E=       -0.000962007780 Rises=F Damp=F
 DIIS: error= 1.24D-03 at cycle   2 NSaved=   2.
 NSaved= 2 IEnMin= 2 EnMin=-0.664618950698667     IErMin= 2 ErrMin= 1.24D-03
 ErrMax= 1.24D-03  0.00D+00 EMaxC= 1.00D-01 BMatC= 4.03D-05 BMatP= 2.75D-04
 IDIUse=3 WtCom= 9.88D-01 WtEn= 1.24D-02
 Coeff-Com: -0.550D+00 0.155D+01
 Coeff-En:   0.000D+00 0.100D+01
 Coeff:     -0.543D+00 0.154D+01
 Gap=     0.389 Goal=   None    Shift=    0.000
 RMSDP=8.27D-04 MaxDP=7.17D-03 DE=-9.62D-04 OVMax= 4.19D-03

 Cycle   3  Pass 1  IDiag  3:
 E=-0.664813967068682     Delta-E=       -0.000195016370 Rises=F Damp=F
 DIIS: error= 1.40D-04 at cycle   3 NSaved=   3.
 NSaved= 3 IEnMin= 3 EnMin=-0.664813967068682     IErMin= 3 ErrMin= 1.40D-04
 ErrMax= 1.40D-04  0.00D+00 EMaxC= 1.00D-01 BMatC= 9.83D-07 BMatP= 4.03D-05
 IDIUse=3 WtCom= 9.99D-01 WtEn= 1.40D-03
 Coeff-Com:  0.235D+00-0.740D+00 0.150D+01
 Coeff-En:   0.000D+00 0.000D+00 0.100D+01
 Coeff:      0.235D+00-0.739D+00 0.150D+01
 Gap=     0.389 Goal=   None    Shift=    0.000
 RMSDP=1.59D-04 MaxDP=1.07D-03 DE=-1.95D-04 OVMax= 9.32D-04

 Cycle   4  Pass 1  IDiag  3:
 E=-0.664819835272951     Delta-E=       -0.000005868204 Rises=F Damp=F
 DIIS: error= 2.35D-05 at cycle   4 NSaved=   4.
 NSaved= 4 IEnMin= 4 EnMin=-0.664819835272951     IErMin= 4 ErrMin= 2.35D-05
 ErrMax= 2.35D-05  0.00D+00 EMaxC= 1.00D-01 BMatC= 3.91D-08 BMatP= 9.83D-07
 IDIUse=1 WtCom= 1.00D+00 WtEn= 0.00D+00
 Coeff-Com: -0.992D-01 0.320D+00-0.765D+00 0.154D+01
 Coeff:     -0.992D-01 0.320D+00-0.765D+00 0.154D+01
 Gap=     0.389 Goal=   None    Shift=    0.000
 RMSDP=3.47D-05 MaxDP=1.66D-04 DE=-5.87D-06 OVMax= 2.38D-04

 Cycle   5  Pass 1  IDiag  3:
 E=-0.664820102947033     Delta-E=       -0.000000267674 Rises=F Damp=F
 DIIS: error= 9.05D-06 at cycle   5 NSaved=   5.
 NSaved= 5 IEnMin= 5 EnMin=-0.664820102947033     IErMin= 5 ErrMin= 9.05D-06
 ErrMax= 9.05D-06  0.00D+00 EMaxC= 1.00D-01 BMatC= 3.45D-09 BMatP= 3.91D-08
 IDIUse=1 WtCom= 1.00D+00 WtEn= 0.00D+00
 Coeff-Com:  0.334D-01-0.108D+00 0.266D+00-0.667D+00 0.148D+01
 Coeff:      0.334D-01-0.108D+00 0.266D+00-0.667D+00 0.148D+01
 Gap=     0.389 Goal=   None    Shift=    0.000
 RMSDP=1.01D-05 MaxDP=9.17D-05 DE=-2.68D-07 OVMax= 8.39D-05

 Cycle   6  Pass 1  IDiag  3:
 E=-0.664820131265316     Delta-E=       -0.000000028318 Rises=F Damp=F
 DIIS: error= 6.16D-06 at cycle   6 NSaved=   6.
 NSaved= 6 IEnMin= 6 EnMin=-0.664820131265316     IErMin= 6 ErrMin= 6.16D-06
 ErrMax= 6.16D-06  0.00D+00 EMaxC= 1.00D-01 BMatC= 1.11D-09 BMatP= 3.45D-09
 IDIUse=1 WtCom= 1.00D+00 WtEn= 0.00D+00
 Coeff-Com: -0.910D-02 0.301D-01-0.839D-01 0.308D+00-0.136D+01 0.212D+01
 Coeff:     -0.910D-02 0.301D-01-0.839D-01 0.308D+00-0.136D+01 0.212D+01
 Gap=     0.389 Goal=   None    Shift=    0.000
 RMSDP=9.16D-06 MaxDP=9.07D-05 DE=-2.83D-08 OVMax= 9.01D-05

 Cycle   7  Pass 1  IDiag  3:
 E=-0.664820145085315     Delta-E=       -0.000000013820 Rises=F Damp=F
 DIIS: error= 2.80D-06 at cycle   7 NSaved=   7.
 NSaved= 7 IEnMin= 7 EnMin=-0.664820145085315     IErMin= 7 ErrMin= 2.80D-06
 ErrMax= 2.80D-06  0.00D+00 EMaxC= 1.00D-01 BMatC= 2.48D-10 BMatP= 1.11D-09
 IDIUse=1 WtCom= 1.00D+00 WtEn= 0.00D+00
 Coeff-Com: -0.577D-03 0.152D-02 0.228D-02-0.763D-01 0.741D+00-0.183D+01
 Coeff-Com:  0.216D+01
 Coeff:     -0.577D-03 0.152D-02 0.228D-02-0.763D-01 0.741D+00-0.183D+01
 Coeff:      0.216D+01
 Gap=     0.389 Goal=   None    Shift=    0.000
 RMSDP=6.12D-06 MaxDP=5.89D-05 DE=-1.38D-08 OVMax= 6.13D-05

 Cycle   8  Pass 1  IDiag  3:
 E=-0.664820148670756     Delta-E=       -0.000000003585 Rises=F Damp=F
 DIIS: error= 7.34D-07 at cycle   8 NSaved=   8.
 NSaved= 8 IEnMin= 8 EnMin=-0.664820148670756     IErMin= 8 ErrMin= 7.34D-07
 ErrMax= 7.34D-07  0.00D+00 EMaxC= 1.00D-01 BMatC= 2.00D-11 BMatP= 2.48D-10
 IDIUse=1 WtCom= 1.00D+00 WtEn= 0.00D+00
 Coeff-Com:  0.957D-03-0.296D-02 0.479D-02 0.178D-01-0.295D+00 0.842D+00
 Coeff-Com: -0.128D+01 0.171D+01
 Coeff:      0.957D-03-0.296D-02 0.479D-02 0.178D-01-0.295D+00 0.842D+00
 Coeff:     -0.128D+01 0.171D+01
 Gap=     0.389 Goal=   None    Shift=    0.000
 RMSDP=1.39D-06 MaxDP=1.43D-05 DE=-3.59D-09 OVMax= 1.29D-05

 Cycle   9  Pass 1  IDiag  3:
 E=-0.664820148881276     Delta-E=       -0.000000000211 Rises=F Damp=F
 DIIS: error= 1.84D-07 at cycle   9 NSaved=   9.
 NSaved= 9 IEnMin= 9 EnMin=-0.664820148881276     IErMin= 9 ErrMin= 1.84D-07
 ErrMax= 1.84D-07  0.00D+00 EMaxC= 1.00D-01 BMatC= 1.43D-12 BMatP= 2.00D-11
 IDIUse=1 WtCom= 1.00D+00 WtEn= 0.00D+00
 Coeff-Com: -0.802D-03 0.257D-02-0.565D-02 0.543D-02 0.637D-01-0.237D+00
 Coeff-Com:  0.431D+00-0.853D+00 0.159D+01
 Coeff:     -0.802D-03 0.257D-02-0.565D-02 0.543D-02 0.637D-01-0.237D+00
 Coeff:      0.431D+00-0.853D+00 0.159D+01
 Gap=     0.389 Goal=   None    Shift=    0.000
 RMSDP=2.89D-07 MaxDP=2.71D-06 DE=-2.11D-10 OVMax= 2.23D-06

 Cycle  10  Pass 1  IDiag  3:
 E=-0.664820148892545     Delta-E=       -0.000000000011 Rises=F Damp=F
 DIIS: error= 4.11D-08 at cycle  10 NSaved=  10.
 NSaved=10 IEnMin=10 EnMin=-0.664820148892545     IErMin=10 ErrMin= 4.11D-08
 ErrMax= 4.11D-08  0.00D+00 EMaxC= 1.00D-01 BMatC= 7.76D-14 BMatP= 1.43D-12
 IDIUse=1 WtCom= 1.00D+00 WtEn= 0.00D+00
 Coeff-Com:  0.348D-03-0.112D-02 0.252D-02-0.304D-02-0.220D-01 0.901D-01
 Coeff-Com: -0.173D+00 0.380D+00-0.886D+00 0.161D+01
 Coeff:      0.348D-03-0.112D-02 0.252D-02-0.304D-02-0.220D-01 0.901D-01
 Coeff:     -0.173D+00 0.380D+00-0.886D+00 0.161D+01
 Gap=     0.389 Goal=   None    Shift=    0.000
 RMSDP=5.09D-08 MaxDP=3.25D-07 DE=-1.13D-11 OVMax= 3.81D-07

 Cycle  11  Pass 1  IDiag  3:
 E=-0.664820148893114     Delta-E=       -0.000000000001 Rises=F Damp=F
 DIIS: error= 7.20D-09 at cycle  11 NSaved=  11.
 NSaved=11 IEnMin=11 EnMin=-0.664820148893114     IErMin=11 ErrMin= 7.20D-09
 ErrMax= 7.20D-09  0.00D+00 EMaxC= 1.00D-01 BMatC= 3.37D-15 BMatP= 7.76D-14
 IDIUse=1 WtCom= 1.00D+00 WtEn= 0.00D+00
 Coeff-Com: -0.124D-03 0.401D-03-0.934D-03 0.155D-02 0.335D-02-0.203D-01
 Coeff-Com:  0.440D-01-0.110D+00 0.283D+00-0.676D+00 0.147D+01
 Coeff:     -0.124D-03 0.401D-03-0.934D-03 0.155D-02 0.335D-02-0.203D-01
 Coeff:      0.440D-01-0.110D+00 0.283D+00-0.676D+00 0.147D+01
 Gap=     0.389 Goal=   None    Shift=    0.000
 RMSDP=1.02D-08 MaxDP=5.65D-08 DE=-5.68D-13 OVMax= 8.56D-08

 Cycle  12  Pass 1  IDiag  3:
 E=-0.664820148893455     Delta-E=        0.000000000000 Rises=F Damp=F
 DIIS: error= 1.01D-09 at cycle  12 NSaved=  12.
 NSaved=12 IEnMin=12 EnMin=-0.664820148893455     IErMin=12 ErrMin= 1.01D-09
 ErrMax= 1.01D-09  0.00D+00 EMaxC= 1.00D-01 BMatC= 9.57D-17 BMatP= 3.37D-15
 IDIUse=1 WtCom= 1.00D+00 WtEn= 0.00D+00
 Coeff-Com:  0.312D-04-0.101D-03 0.241D-03-0.465D-03-0.911D-04 0.307D-02
 Coeff-Com: -0.790D-02 0.225D-01-0.619D-01 0.164D+00-0.478D+00 0.136D+01
 Coeff:      0.312D-04-0.101D-03 0.241D-03-0.465D-03-0.911D-04 0.307D-02
 Coeff:     -0.790D-02 0.225D-01-0.619D-01 0.164D+00-0.478D+00 0.136D+01
 Gap=     0.389 Goal=   None    Shift=    0.000
 RMSDP=1.59D-09 MaxDP=9.71D-09 DE=-3.41D-13 OVMax= 1.40D-08

 Cycle  13  Pass 2  IDiag  1:
 SCF Done:  E(RAM1) = -0.664820148893     A.U. after   13 cycles
            NFock= 12  Conv=0.16D-08     -V/T= 0.9609
 KE=-1.699498996523D+01 PE=-1.721872698112D+02 EE= 8.478698609789D+01
 Leave Link  502 at Wed Mar 16 11:15:44 2016, MaxMem=    33554432 cpu:         0.0
 (Enter /opt/g09/g09/l701.exe)
 Compute integral first derivatives.
 ... and contract with generalized density number  0.
 Leave Link  701 at Wed Mar 16 11:15:44 2016, MaxMem=    33554432 cpu:         0.0
 (Enter /opt/g09/g09/l702.exe)
 L702 exits ... SP integral derivatives will be done elsewhere.
 Leave Link  702 at Wed Mar 16 11:15:44 2016, MaxMem=    33554432 cpu:         0.0
 (Enter /opt/g09/g09/l703.exe)
 Compute integral first derivatives, UseDBF=F ICtDFT=           0.
 Integral derivatives from FoFJK, PRISM(SPDF).
 Calling FoFJK, ICntrl=      2127 FMM=F ISym2X=0 I1Cent= 0 IOpClX= 0 NMat=1 NMatS=1 NMatT=0.
 FoFJK:  IHMeth= 8 ICntrl=    2127 DoSepK=F KAlg= 0 I1Cent=   0 FoldK=F
 IRaf=         0 NMat=   1 IRICut=       1 DoRegI=T DoRafI=F ISym2E= 0.
 FoFCou: FMM=F IPFlag=           0 FMFlag=      100000 FMFlg1=         800
         NFxFlg=           0 DoJE=F BraDBF=F KetDBF=F FulRan=T
         wScrn=  0.000000 ICntrl=    2127 IOpCl=  0 I1Cent=           0 NGrid=           0
         NMat0=    1 NMatS0=      1 NMatT0=    0 NMatD0=    1 NMtDS0=    0 NMtDT0=    0
 Symmetry not used in FoFCou.
 Leave Link  703 at Wed Mar 16 11:15:44 2016, MaxMem=    33554432 cpu:         0.0
 (Enter /opt/g09/g09/l716.exe)
 Dipole        = 4.33648137D-03-8.85570292D-02-1.03327845D-02
 ***** Axes restored to original set *****
 -------------------------------------------------------------------
 Center     Atomic                   Forces (Hartrees/Bohr)
 Number     Number              X              Y              Z
 -------------------------------------------------------------------
      1        6          -0.000922023    0.003167249   -0.000208037
      2        6           0.001015412    0.009067567   -0.000149827
      3        8          -0.002237742   -0.000831849    0.002138060
      4        6           0.001479803   -0.006928074   -0.001244529
      5        6          -0.003422639   -0.003588921    0.000360488
      6        1           0.002485570    0.000324515    0.001671058
[...]
     X       X          X         X                                                               X   X                              
     X       X          X         X                                                               X   X                              
     X       X          X         X                                                               X   X                              
     X       X          X         X                                                               X   X                              
     X       X          X         X                                                                   X                              
     X       X          X         X                                                                                                  
     X       X                    X                                                                                                  
     X       X                    X                                                                                                  
     X                            X                                                                                                  
     X                            X                                                                                                  
     X                            X                                                                                                  
     X                            X                                                                                                  
                                  X                                                                                                  
                                  X                                                                                                  
                                  X                                                                                                  
 
 ***** Axes restored to original set *****
 -------------------------------------------------------------------
 Center     Atomic                   Forces (Hartrees/Bohr)
 Number     Number              X              Y              Z
 -------------------------------------------------------------------
      1        6           0.064688795    0.013851500    0.026823714
      2        6          -0.081555018   -0.062257247   -0.000247825
      3        8          -0.025123273   -0.002816325   -0.005816584
      4        6          -0.009490275   -0.019305282    0.018817952
      5        6           0.064461319    0.024434808   -0.041631473
      6        1          -0.031492821   -0.030030680    0.016293588
      7        1          -0.002601701    0.005278499   -0.003112077
      8        1           0.030844322    0.060362380   -0.004234988
      9        1          -0.009731348    0.010482347   -0.006892308
 -------------------------------------------------------------------
 Cartesian Forces:  Max     0.081555018 RMS     0.033701866
 Z-matrix is all fixed cartesians, so copy forces.
 Force constants in Cartesian coordinates: 
                1             2             3             4             5 
      1  0.986102D+00
      2 -0.136660D+00  0.663169D+00
      3  0.245463D-01  0.284161D-02  0.164527D+00
      4 -0.475689D+00 -0.930433D-01 -0.660716D-02  0.805678D+00
      5 -0.163950D+00 -0.992170D-01 -0.322136D-02  0.150769D+00  0.759044D+00
      6 -0.580535D-02 -0.150779D-02 -0.774525D-01  0.511848D-02  0.899332D-02
      7 -0.114806D+00  0.694860D-01 -0.108097D-02 -0.223936D+00  0.154398D+00
      8  0.822596D-01  0.122624D-01  0.463390D-04  0.851795D-01 -0.224608D+00
      9 -0.762083D-03 -0.308516D-02  0.169967D-01  0.435643D-02 -0.335500D-02
     10 -0.583307D-01  0.640921D-01  0.306438D-03  0.900174D-01 -0.488852D-02
     11  0.656059D-01 -0.696329D-01  0.641478D-03  0.741422D-02 -0.155438D+00
     12  0.177730D-02  0.508303D-02  0.294107D-01 -0.785013D-03 -0.232293D-02
     13 -0.665528D-01 -0.279890D-01 -0.727319D-03 -0.548608D-01 -0.734183D-01
     14  0.311925D-01 -0.316270D+00 -0.162162D-01 -0.767313D-01 -0.831691D-01
     15  0.182510D-02 -0.176278D-01 -0.100466D+00 -0.623477D-02 -0.627752D-02
     16  0.147608D-02 -0.528693D-02  0.159861D-02 -0.942020D-04  0.195113D-02
     17 -0.221330D-01 -0.258055D-01  0.104156D-02  0.174020D-02 -0.159879D-02
     18  0.257681D-03 -0.198927D-02  0.123947D-01  0.293684D-03 -0.118056D-03
     19 -0.236668D-02 -0.116990D-03  0.404668D-04 -0.270127D-02 -0.424443D-02
     20 -0.220586D-02  0.408011D-03  0.259216D-03 -0.127479D-02 -0.185635D-02
     21 -0.740292D-03  0.828341D-03 -0.132073D-02  0.765985D-03  0.381937D-03
     22 -0.160453D-01 -0.234713D-01  0.422394D-03 -0.100105D+00 -0.757654D-01
     23 -0.917188D-02 -0.714349D-02  0.171921D-03 -0.710969D-01 -0.199898D+00
     24 -0.109723D-02  0.157908D-03  0.139779D-01  0.492270D-02  0.484072D-02
     25 -0.253787D+00  0.152989D+00 -0.184992D-01 -0.383097D-01  0.151481D-01
     26  0.155062D+00 -0.157771D+00  0.144352D-01 -0.295587D-02  0.673931D-02
     27 -0.200011D-01  0.152998D-01 -0.580666D-01 -0.183128D-02  0.107909D-02
                6             7             8             9            10 
      6  0.157283D+00
      7  0.689843D-02  0.662582D+00
      8 -0.554533D-02  0.165660D-01  0.542167D+00
      9 -0.442499D-01  0.174238D-02  0.418213D-02  0.316436D-01
     10  0.125711D-02 -0.222057D+00 -0.103167D+00  0.136508D-02  0.702414D+00
     11 -0.153025D-02 -0.172187D+00 -0.263605D+00  0.175695D-02 -0.174719D+00
     12 -0.119938D-01 -0.338215D-03  0.450170D-02 -0.426812D-01  0.214195D-01
     13 -0.770103D-02 -0.119830D+00 -0.766046D-01 -0.646047D-02 -0.365178D+00
     14 -0.521285D-02 -0.671491D-01  0.121313D-01 -0.518150D-03  0.686535D-01
     15  0.320602D-01 -0.590541D-02 -0.491850D-02  0.170451D-01 -0.211781D-01
     16  0.159677D-03 -0.123427D-02  0.931647D-03 -0.460104D-03 -0.353112D-01
     17 -0.210645D-03  0.252675D-02  0.739532D-03  0.129730D-03  0.262292D-02
     18  0.490386D-03  0.119011D-02  0.885018D-03  0.246513D-03 -0.206471D-02
     19  0.102021D-03  0.108466D-01 -0.174015D-01  0.684464D-04 -0.108763D+00
     20  0.277117D-03  0.313500D-02 -0.438279D-01  0.329540D-03  0.147573D+00
     21  0.264235D-02 -0.106601D-02 -0.484146D-03  0.105381D-01 -0.270265D-03
     22  0.255582D-02  0.969492D-02  0.132932D-01  0.103733D-03 -0.290355D-02
     23  0.472171D-02 -0.417938D-02 -0.361723D-01  0.421235D-03  0.162230D-02
     24 -0.715298D-01 -0.926965D-03  0.136712D-02  0.914990D-02 -0.135782D-02
     25 -0.258488D-02 -0.125975D-02 -0.105614D-02  0.464490D-04  0.111868D-03
     26  0.148318D-04 -0.259592D-02  0.914830D-03  0.138801D-03 -0.178915D-02
     27  0.127514D-01 -0.512386D-03 -0.341343D-04  0.130860D-02  0.521877D-03
               11            12            13            14            15 
     11  0.935436D+00
     12 -0.127626D-01  0.144122D+00
     13  0.131351D+00 -0.227287D-01  0.829915D+00
     14 -0.103289D+00  0.205046D-02  0.126484D+00  0.671169D+00
     15  0.102658D-01 -0.903554D-01  0.134337D-01  0.167126D-02  0.182983D+00
     16 -0.142038D-01  0.164560D-02 -0.203730D+00 -0.115825D+00  0.215929D-01
     17  0.559558D-02  0.131232D-02 -0.117237D+00 -0.145022D+00  0.167249D-01
     18  0.780068D-03  0.129344D-01  0.245608D-01  0.191912D-01 -0.683591D-01
     19  0.154546D+00 -0.110632D-02 -0.189169D-01  0.265669D-01 -0.219892D-02
     20 -0.345823D+00  0.245830D-02  0.114785D-01 -0.782402D-02 -0.125405D-05
     21  0.141767D-02 -0.444524D-01 -0.170507D-02  0.124612D-02  0.154040D-01
     22  0.419479D-02  0.115607D-03 -0.202291D-02 -0.154175D-04 -0.162948D-03
     23 -0.146909D-02 -0.148544D-03  0.176062D-02  0.683832D-03  0.307648D-03
     24 -0.392163D-04  0.199245D-02  0.148701D-02 -0.663872D-03 -0.404518D-03
     25 -0.200201D-02  0.000000D+00  0.117656D-02  0.682479D-02 -0.117126D-02
     26 -0.177532D-02 -0.171845D-03  0.241753D-01 -0.284104D-01 -0.144672D-03
     27 -0.530517D-03  0.102417D-02 -0.158366D-03 -0.154844D-02  0.120937D-01
               16            17            18            19            20 
     16  0.238350D+00
     17  0.132589D+00  0.165421D+00
     18 -0.243824D-01 -0.188394D-01  0.436534D-01
     19 -0.814183D-04  0.693404D-04  0.700239D-04  0.121479D+00
     20  0.461573D-03  0.850648D-03  0.779090D-04 -0.159669D+00  0.399295D+00
     21  0.813417D-05 -0.100857D-03 -0.201011D-03  0.301702D-02 -0.334051D-02
     22 -0.182568D-03 -0.358488D-03  0.546406D-05  0.682732D-03  0.781083D-04
     23 -0.431458D-03 -0.387138D-03  0.000000D+00 -0.100152D-03 -0.864952D-03
     24 -0.684559D-04 -0.401278D-05 -0.586502D-03 -0.242975D-04 -0.933701D-04
     25  0.807382D-03  0.179469D-03  0.694272D-04 -0.178733D-03  0.423819D-03
     26 -0.186844D-03  0.206571D-03  0.129392D-04  0.349603D-03 -0.357058D-03
     27 -0.938674D-04 -0.535489D-04 -0.573119D-03  0.314785D-04  0.330553D-04
               21            22            23            24            25 
     21  0.181067D-01
     22 -0.485767D-04  0.110857D+00
     23  0.339467D-04  0.820757D-01  0.244454D+00
     24 -0.339436D-03 -0.294800D-02 -0.552192D-02  0.479552D-01
     25  0.390794D-04  0.242890D-04 -0.478708D-03  0.130676D-04  0.291415D+00
     26  0.174730D-04 -0.309305D-04  0.796480D-03 -0.432897D-04 -0.172028D+00
     27 -0.377701D-03 -0.433882D-04  0.142430D-04 -0.215611D-03  0.220869D-01
               26            27 
     26  0.179656D+00
     27 -0.142595D-01  0.320550D-01
 Leave Link  716 at Wed Mar 16 11:15:46 2016, MaxMem=    33554432 cpu:         0.0
 (Enter /opt/g09/g09/l103.exe)

 GradGradGradGradGradGradGradGradGradGradGradGradGradGradGradGradGradGrad
 Berny optimization.
 Search for a local minimum.
 Step number   1 out of a maximum of    2
 All quantities printed in internal units (Hartrees-Bohrs-Radians)
 Second derivative matrix not updated -- analytic derivatives used.
 ITU=  0
     Eigenvalues ---    0.00937   0.02008   0.05717   0.05971   0.07294
     Eigenvalues ---    0.07965   0.11118   0.16958   0.17842   0.21863
     Eigenvalues ---    0.22653   0.32571   0.38137   0.44591   0.68437
     Eigenvalues ---    0.79396   0.98050   1.09014   1.13653   1.37834
     Eigenvalues ---    1.60062
 Quadratic step=3.486D-01 exceeds max=3.000D-01 adjusted using Lamda=-2.884D-02.
 Angle between NR and scaled steps=  11.89 degrees.
 Angle between quadratic step and forces=  41.79 degrees.
 Linear search not attempted -- first point.
 TrRot= -0.005804 -0.006112 -0.002372  1.283563  0.004195 -1.283233
 Variable       Old X    -DE/DX   Delta X   Delta X   Delta X     New X
                                 (Linear)    (Quad)   (Total)
    X1        1.81776   0.06469   0.00000   0.03816   0.03285   1.85062
    Y1       -1.35062   0.01385   0.00000   0.02732   0.02203  -1.32859
    Z1       -0.01746   0.02682   0.00000   0.06779   0.06853   0.05107
    X2       -0.61901  -0.08156   0.00000  -0.05502  -0.06016  -0.67917
    Y2       -2.06528  -0.06226   0.00000  -0.00358  -0.00999  -2.07527
    Z2       -0.04985  -0.00025   0.00000   0.02738   0.03413  -0.01572
    X3       -2.19060  -0.02512   0.00000  -0.05682  -0.06267  -2.25327
    Y3       -0.00244  -0.00282   0.00000  -0.01428  -0.02129  -0.02372
    Z3       -0.01017  -0.00582   0.00000  -0.02935  -0.02898  -0.03915
    X4       -0.68657  -0.00949   0.00000  -0.00811  -0.01457  -0.70114
    Y4        2.09430  -0.01931   0.00000  -0.05323  -0.05952   2.03477
    Z4       -0.02625   0.01882   0.00000   0.04123   0.03147   0.00522
    X5        1.80169   0.06446   0.00000   0.05527   0.04909   1.85079
    Y5        1.31750   0.02443   0.00000  -0.00299  -0.00827   1.30923
    Z5        0.17774  -0.04163   0.00000  -0.11972  -0.12959   0.04815
    X6        3.42100  -0.03149   0.00000  -0.02745  -0.03414   3.38686
    Y6        2.58850  -0.03003   0.00000  -0.07677  -0.08194   2.50656
    Z6       -0.09719   0.01629   0.00000   0.06109   0.04457  -0.05261
    X7       -1.51976  -0.00260   0.00000   0.01223   0.00515  -1.51461
    Y7        3.85004   0.00528   0.00000  -0.02520  -0.03184   3.81820
    Z7       -0.03281  -0.00311   0.00000   0.03029   0.01433  -0.01848
    X8       -1.58772   0.03084   0.00000   0.09316   0.08861  -1.49910
    Y8       -3.98405   0.06036   0.00000   0.17362   0.16701  -3.81704
    Z8        0.02307  -0.00423   0.00000  -0.03312  -0.01838   0.00469
    X9        3.41870  -0.00973   0.00000   0.00065  -0.00417   3.41453
    Y9       -2.53296   0.01048   0.00000   0.02829   0.02382  -2.50915
    Z9        0.14355  -0.00689   0.00000  -0.01972  -0.01608   0.12746
         Item               Value     Threshold  Converged?
 Maximum Force            0.081555     0.000450     NO 
 RMS     Force            0.033702     0.000300     NO 
 Maximum Displacement     0.167007     0.001800     NO 
 RMS     Displacement     0.057226     0.001200     NO 
 Predicted change in Energy=-2.092103D-02
 GradGradGradGradGradGradGradGradGradGradGradGradGradGradGradGradGradGrad

 Leave Link  103 at Wed Mar 16 11:15:46 2016, MaxMem=    33554432 cpu:         0.0
 (Enter /opt/g09/g09/l9999.exe)
 1\1\GINC-LINUX-CBNE\Freq\RAM1-Full\STO-3G\C4H4O1\DUSTIN\16-Mar-2016\0\
 \#P AM1(Input,Print) CIS(Singlets,NStates=10) pop(full) freq\\best1\\0
 ,1\C,0.961919,-0.714719,-0.009241\C,-0.327566,-1.092899,-0.026381\O,-1
 .159217,-0.001289,-0.005381\C,-0.363317,1.108254,-0.01389\C,0.953415,0
 .697189,0.094054\H,1.810315,1.369774,-0.05143\H,-0.804222,2.037356,-0.
 01736\H,-0.840184,-2.108268,0.012209\H,1.8091,-1.340387,0.075961\\Vers
 ion=ES64L-G09RevD.01\State=1-A\HF=-0.6486702\RMSD=7.401e-09\RMSF=3.370
 e-02\ZeroPoint=0.0738035\Thermal=0.0776459\Dipole=-0.0067564,-0.089127
 ,-0.0064969\DipoleDeriv=-0.3324905,0.2525684,0.00999,0.1852134,-0.1884
 844,0.0093305,0.0327027,0.0072363,-0.2655047,-0.00629,-0.440942,-0.009
 5502,-0.3698086,-0.4612944,0.0137565,-0.0116038,-0.0162395,-0.3971605,
 -0.5478032,-0.061979,0.0008778,0.0120337,-0.1895484,-0.0043619,0.01921
 03,0.0110572,0.1484924,-0.0649075,0.4798644,0.0011849,0.362945,-0.4803
 129,0.0028714,0.0065683,0.021522,-0.4174678,-0.2975837,-0.2397017,0.00
 65008,-0.2029977,-0.1958109,-0.0060564,-0.0401865,-0.0012539,-0.286609
 2,0.3443774,0.1148878,-0.0060737,0.104726,0.2920471,-0.0044424,0.00871
 52,-0.0064751,0.2747892,0.2705859,-0.1206487,-0.0075634,-0.1123501,0.4
 597541,-0.0015317,-0.0085371,-0.0102471,0.3376965,0.2863027,0.127072,0
 .0021824,0.1171372,0.4765791,0.0004064,-0.0028454,0.0026846,0.3415708,
 0.3478103,-0.1111233,0.0024524,-0.0968972,0.2870646,-0.0099702,-0.0040
 234,-0.0082874,0.2641952\Polar=36.8395831,0.9230999,42.437168,0.715542
 3,0.5339739,9.4223116\PG=C01 [X(C4H4O1)]\NImag=0\\0.98610235,-0.136660
 30,0.66316862,0.02454631,0.00284161,0.16452719,-0.47568926,-0.09304333
 ,-0.00660716,0.80567790,-0.16394980,-0.09921700,-0.00322136,0.15076901
 ,0.75904398,-0.00580535,-0.00150779,-0.07745247,0.00511848,0.00899332,
 0.15728259,-0.11480613,0.06948603,-0.00108097,-0.22393559,0.15439828,0
 .00689843,0.66258154,0.08225961,0.01226244,0.00004634,0.08517952,-0.22
 460754,-0.00554533,0.01656601,0.54216652,-0.00076208,-0.00308516,0.016
 99667,0.00435643,-0.00335500,-0.04424987,0.00174238,0.00418213,0.03164
 358,-0.05833074,0.06409210,0.00030644,0.09001738,-0.00488852,0.0012571
 1,-0.22205672,-0.10316737,0.00136508,0.70241384,0.06560589,-0.06963287
 ,0.00064148,0.00741422,-0.15543774,-0.00153025,-0.17218726,-0.26360533
 ,0.00175695,-0.17471944,0.93543575,0.00177730,0.00508303,0.02941069,-0
 .00078501,-0.00232293,-0.01199376,-0.00033822,0.00450170,-0.04268123,0
 .02141951,-0.01276263,0.14412173,-0.06655277,-0.02798901,-0.00072732,-
 0.05486076,-0.07341826,-0.00770103,-0.11983022,-0.07660464,-0.00646047
 ,-0.36517807,0.13135096,-0.02272873,0.82991493,0.03119248,-0.31626956,
 -0.01621619,-0.07673129,-0.08316914,-0.00521285,-0.06714914,0.01213132
 ,-0.00051815,0.06865346,-0.10328884,0.00205046,0.12648366,0.67116903,0
 .00182510,-0.01762783,-0.10046607,-0.00623477,-0.00627752,0.03206023,-
 0.00590541,-0.00491850,0.01704512,-0.02117806,0.01026584,-0.09035536,0
 .01343366,0.00167126,0.18298284,0.00147608,-0.00528693,0.00159861,-0.0
 0009420,0.00195113,0.00015968,-0.00123427,0.00093165,-0.00046010,-0.03
 531118,-0.01420381,0.00164560,-0.20372978,-0.11582465,0.02159286,0.238
 34993,-0.02213296,-0.02580545,0.00104156,0.00174020,-0.00159879,-0.000
 21065,0.00252675,0.00073953,0.00012973,0.00262292,0.00559558,0.0013123
 2,-0.11723657,-0.14502219,0.01672491,0.13258940,0.16542133,0.00025768,
 -0.00198927,0.01239470,0.00029368,-0.00011806,0.00049039,0.00119011,0.
 00088502,0.00024651,-0.00206471,0.00078007,0.01293441,0.02456084,0.019
 19118,-0.06835912,-0.02438245,-0.01883941,0.04365343,-0.00236668,-0.00
 011699,0.00004047,-0.00270127,-0.00424443,0.00010202,0.01084661,-0.017
 40145,0.00006845,-0.10876347,0.15454600,-0.00110632,-0.01891686,0.0265
 6692,-0.00219892,-0.00008142,0.00006934,0.00007002,0.12147926,-0.00220
 586,0.00040801,0.00025922,-0.00127479,-0.00185635,0.00027712,0.0031350
 0,-0.04382792,0.00032954,0.14757274,-0.34582301,0.00245830,0.01147855,
 -0.00782402,-0.00000125,0.00046157,0.00085065,0.00007791,-0.15966922,0
 .39929460,-0.00074029,0.00082834,-0.00132073,0.00076599,0.00038194,0.0
 0264235,-0.00106601,-0.00048415,0.01053808,-0.00027027,0.00141767,-0.0
 4445243,-0.00170507,0.00124612,0.01540400,0.00000813,-0.00010086,-0.00
 020101,0.00301702,-0.00334051,0.01810665,-0.01604532,-0.02347125,0.000
 42239,-0.10010491,-0.07576545,0.00255582,0.00969492,0.01329322,0.00010
 373,-0.00290355,0.00419479,0.00011561,-0.00202291,-0.00001542,-0.00016
 295,-0.00018257,-0.00035849,0.00000546,0.00068273,0.00007811,-0.000048
 58,0.11085739,-0.00917188,-0.00714349,0.00017192,-0.07109692,-0.199897
 75,0.00472171,-0.00417938,-0.03617231,0.00042124,0.00162230,-0.0014690
 9,-0.00014854,0.00176062,0.00068383,0.00030765,-0.00043146,-0.00038714
 ,-0.00000023,-0.00010015,-0.00086495,0.00003395,0.08207568,0.24445444,
 -0.00109723,0.00015791,0.01397793,0.00492270,0.00484072,-0.07152978,-0
 .00092696,0.00136712,0.00914990,-0.00135782,-0.00003922,0.00199245,0.0
 0148701,-0.00066387,-0.00040452,-0.00006846,-0.00000401,-0.00058650,-0
 .00002430,-0.00009337,-0.00033944,-0.00294800,-0.00552192,0.04795522,-
 0.25378725,0.15298900,-0.01849925,-0.03830967,0.01514810,-0.00258488,-
 0.00125975,-0.00105614,0.00004645,0.00011187,-0.00200201,0.00000040,0.
 00117656,0.00682479,-0.00117126,0.00080738,0.00017947,0.00006943,-0.00
 017873,0.00042382,0.00003908,0.00002429,-0.00047871,0.00001307,0.29141
 533,0.15506217,-0.15777055,0.01443518,-0.00295587,0.00673931,0.0000148
 3,-0.00259592,0.00091483,0.00013880,-0.00178915,-0.00177532,-0.0001718
 5,0.02417526,-0.02841035,-0.00014467,-0.00018684,0.00020657,0.00001294
 ,0.00034960,-0.00035706,0.00001747,-0.00003093,0.00079648,-0.00004329,
 -0.17202835,0.17965621,-0.02000114,0.01529984,-0.05806665,-0.00183128,
 0.00107909,0.01275139,-0.00051239,-0.00003413,0.00130860,0.00052188,-0
 .00053052,0.00102417,-0.00015837,-0.00154844,0.01209366,-0.00009387,-0
 .00005355,-0.00057312,0.00003148,0.00003306,-0.00037770,-0.00004339,0.
 00001424,-0.00021561,0.02208694,-0.01425948,0.03205497\\-0.06468880,-0
 .01385150,-0.02682371,0.08155502,0.06225725,0.00024783,0.02512327,0.00
 281632,0.00581658,0.00949028,0.01930528,-0.01881795,-0.06446132,-0.024
 43481,0.04163147,0.03149282,0.03003068,-0.01629359,0.00260170,-0.00527
 850,0.00311208,-0.03084432,-0.06036238,0.00423499,0.00973135,-0.010482
 35,0.00689231\\\@


 THE ONLY DIFFERENCE BETWEEN ECCENTRICS AND JOGGERS
 IS THAT JOGGERS WEAR SWEATBANDS WHEN THEY RUN IN THE RAIN.
 Job cpu time:       0 days  0 hours  0 minutes  0.5 seconds.
 File lengths (MBytes):  RWF=      6 Int=      0 D2E=      0 Chk=      2 Scr=      1
 Normal termination of Gaussian 09 at Wed Mar 16 11:15:46 2016.
