 Entering Gaussian System, Link 0=g09
 Input=best.com
 Output=best.log
 Initial command:
 /opt/g09/g09/l1.exe "/opt/g09/scratch/Gau-30965.inp" -scrdir="/opt/g09/scratch/"
 Entering Link 1 = /opt/g09/g09/l1.exe PID=     30966.
  
 Copyright (c) 1988,1990,1992,1993,1995,1998,2003,2009,2013,
            Gaussian, Inc.  All Rights Reserved.
  
 This is part of the Gaussian(R) 09 program.  It is based on
 the Gaussian(R) 03 system (copyright 2003, Gaussian, Inc.),
 the Gaussian(R) 98 system (copyright 1998, Gaussian, Inc.),
 the Gaussian(R) 94 system (copyright 1995, Gaussian, Inc.),
 the Gaussian 92(TM) system (copyright 1992, Gaussian, Inc.),
 the Gaussian 90(TM) system (copyright 1990, Gaussian, Inc.),
 the Gaussian 88(TM) system (copyright 1988, Gaussian, Inc.),
 the Gaussian 86(TM) system (copyright 1986, Carnegie Mellon
 University), and the Gaussian 82(TM) system (copyright 1983,
 Carnegie Mellon University). Gaussian is a federally registered
 trademark of Gaussian, Inc.
  
 This software contains proprietary and confidential information,
 including trade secrets, belonging to Gaussian, Inc.
  
 This software is provided under written license and may be
 used, copied, transmitted, or stored only in accord with that
 written license.
  
 The following legend is applicable only to US Government
 contracts under FAR:
  
                    RESTRICTED RIGHTS LEGEND
  
 Use, reproduction and disclosure by the US Government is
 subject to restrictions as set forth in subparagraphs (a)
 and (c) of the Commercial Computer Software - Restricted
 Rights clause in FAR 52.227-19.
  
 Gaussian, Inc.
 340 Quinnipiac St., Bldg. 40, Wallingford CT 06492
  
  
 ---------------------------------------------------------------
 Warning -- This program may not be used in any manner that
 competes with the business of Gaussian, Inc. or will provide
 assistance to any competitor of Gaussian, Inc.  The licensee
 of this program is prohibited from giving any competitor of
 Gaussian, Inc. access to this program.  By using this program,
 the user acknowledges that Gaussian, Inc. is engaged in the
 business of creating and licensing software in the field of
 computational chemistry and represents and warrants to the
 licensee that it is not a competitor of Gaussian, Inc. and that
 it will not use this program in any manner prohibited above.
 ---------------------------------------------------------------
  

 Cite this work as:
 Gaussian 09, Revision D.01,
 M. J. Frisch, G. W. Trucks, H. B. Schlegel, G. E. Scuseria, 
 M. A. Robb, J. R. Cheeseman, G. Scalmani, V. Barone, B. Mennucci, 
 G. A. Petersson, H. Nakatsuji, M. Caricato, X. Li, H. P. Hratchian, 
 A. F. Izmaylov, J. Bloino, G. Zheng, J. L. Sonnenberg, M. Hada, 
 M. Ehara, K. Toyota, R. Fukuda, J. Hasegawa, M. Ishida, T. Nakajima, 
 Y. Honda, O. Kitao, H. Nakai, T. Vreven, J. A. Montgomery, Jr., 
 J. E. Peralta, F. Ogliaro, M. Bearpark, J. J. Heyd, E. Brothers, 
 K. N. Kudin, V. N. Staroverov, T. Keith, R. Kobayashi, J. Normand, 
 K. Raghavachari, A. Rendell, J. C. Burant, S. S. Iyengar, J. Tomasi, 
 M. Cossi, N. Rega, J. M. Millam, M. Klene, J. E. Knox, J. B. Cross, 
 V. Bakken, C. Adamo, J. Jaramillo, R. Gomperts, R. E. Stratmann, 
 O. Yazyev, A. J. Austin, R. Cammi, C. Pomelli, J. W. Ochterski, 
 R. L. Martin, K. Morokuma, V. G. Zakrzewski, G. A. Voth, 
 P. Salvador, J. J. Dannenberg, S. Dapprich, A. D. Daniels, 
 O. Farkas, J. B. Foresman, J. V. Ortiz, J. Cioslowski, 
 and D. J. Fox, Gaussian, Inc., Wallingford CT, 2013.
 
 ******************************************
 Gaussian 09:  ES64L-G09RevD.01 24-Apr-2013
                12-Mar-2016 
 ******************************************
 -----------------------
 #P AM1(Input,Print) opt
 -----------------------
 1/14=-1,18=20,19=15,26=1,38=1/1,3;
 2/9=110,12=2,17=6,18=5,40=1/2;
 3/5=2,16=1,25=1,41=700000,71=1,135=100,136=1/1,2,3;
 4/35=1/1;
 5/5=2,35=1,38=5/2;
 6/7=2,8=2,9=2,10=2,28=1/1;
 7//1,2,3,16;
 1/14=-1,18=20,19=15,26=1/3(2);
 2/9=110/2;
 99//99;
 2/9=110/2;
 3/5=2,16=1,25=1,41=700000,71=1,135=20,136=1/1,2,3;
 4/5=5,16=3,35=1/1;
 5/5=2,35=1,38=5/2;
 7//1,2,3,16;
 1/14=-1,18=20,19=15,26=1/3(-5);
 2/9=110/2;
 6/7=2,8=2,9=2,10=2,19=2,28=1/1;
 99/9=1/99;
 Leave Link    1 at Sat Mar 12 19:22:14 2016, MaxMem=           0 cpu:         0.0
 (Enter /opt/g09/g09/l101.exe)
 --
 hi
 --
 Symbolic Z-matrix:
 Charge =  0 Multiplicity = 1
 6                     0.93197  -0.71916  -0.01249 
 6                    -0.35538  -1.09984  -0.00963 
 8                    -1.15657  -0.00047  -0.00047 
 6                    -0.32788   1.09452  -0.01331 
 6                     0.93986   0.74081   0.0224 
 1                     1.83006   1.36081   0.01052 
 1                    -0.82092   2.04371  -0.03157 
 1                    -0.856    -2.05911   0.01126 
 1                     1.8118   -1.38063  -0.00528 
 
 NAtoms=      9 NQM=        9 NQMF=       0 NMMI=      0 NMMIF=      0
                NMic=       0 NMicF=      0.
                    Isotopes and Nuclear Properties:
 (Nuclear quadrupole moments (NQMom) in fm**2, nuclear magnetic moments (NMagM)
  in nuclear magnetons)

  Atom         1           2           3           4           5           6           7           8           9
 IAtWgt=          12          12          16          12          12           1           1           1           1
 AtmWgt=  12.0000000  12.0000000  15.9949146  12.0000000  12.0000000   1.0078250   1.0078250   1.0078250   1.0078250
 NucSpn=           0           0           0           0           0           1           1           1           1
 AtZEff=   0.0000000   0.0000000   0.0000000   0.0000000   0.0000000   0.0000000   0.0000000   0.0000000   0.0000000
 NQMom=    0.0000000   0.0000000   0.0000000   0.0000000   0.0000000   0.0000000   0.0000000   0.0000000   0.0000000
 NMagM=    0.0000000   0.0000000   0.0000000   0.0000000   0.0000000   2.7928460   2.7928460   2.7928460   2.7928460
 AtZNuc=   6.0000000   6.0000000   8.0000000   6.0000000   6.0000000   1.0000000   1.0000000   1.0000000   1.0000000
 Leave Link  101 at Sat Mar 12 19:22:14 2016, MaxMem=    33554432 cpu:         0.0
 (Enter /opt/g09/g09/l103.exe)

 GradGradGradGradGradGradGradGradGradGradGradGradGradGradGradGradGradGrad
 Berny optimization.
 Initialization pass.
                           ----------------------------
                           !    Initial Parameters    !
                           ! (Angstroms and Degrees)  !
 --------------------------                            --------------------------
 ! Name  Definition              Value          Derivative Info.                !
 --------------------------------------------------------------------------------
 ! R1    R(1,2)                  1.3425         estimate D2E/DX2                !
 ! R2    R(1,5)                  1.4604         estimate D2E/DX2                !
 ! R3    R(1,9)                  1.1008         estimate D2E/DX2                !
 ! R4    R(2,3)                  1.3604         estimate D2E/DX2                !
 ! R5    R(2,8)                  1.0823         estimate D2E/DX2                !
 ! R6    R(3,4)                  1.3733         estimate D2E/DX2                !
 ! R7    R(4,5)                  1.3166         estimate D2E/DX2                !
 ! R8    R(4,7)                  1.0698         estimate D2E/DX2                !
 ! R9    R(5,6)                  1.0849         estimate D2E/DX2                !
 ! A1    A(2,1,5)              106.7747         estimate D2E/DX2                !
 ! A2    A(2,1,9)              126.5888         estimate D2E/DX2                !
 ! A3    A(5,1,9)              126.6022         estimate D2E/DX2                !
 ! A4    A(1,2,3)              109.6107         estimate D2E/DX2                !
 ! A5    A(1,2,8)              134.025          estimate D2E/DX2                !
 ! A6    A(3,2,8)              116.3433         estimate D2E/DX2                !
 ! A7    A(2,3,4)              106.7932         estimate D2E/DX2                !
 ! A8    A(3,4,5)              111.5042         estimate D2E/DX2                !
 ! A9    A(3,4,7)              115.4379         estimate D2E/DX2                !
 ! A10   A(5,4,7)              133.0468         estimate D2E/DX2                !
 ! A11   A(1,5,4)              105.2311         estimate D2E/DX2                !
 ! A12   A(1,5,6)              125.1331         estimate D2E/DX2                !
 ! A13   A(4,5,6)              129.5125         estimate D2E/DX2                !
 ! D1    D(5,1,2,3)              1.1007         estimate D2E/DX2                !
 ! D2    D(5,1,2,8)           -177.1129         estimate D2E/DX2                !
 ! D3    D(9,1,2,3)            179.0757         estimate D2E/DX2                !
 ! D4    D(9,1,2,8)              0.8621         estimate D2E/DX2                !
 ! D5    D(2,1,5,4)             -2.5245         estimate D2E/DX2                !
 ! D6    D(2,1,5,6)           -178.8088         estimate D2E/DX2                !
 ! D7    D(9,1,5,4)            179.5009         estimate D2E/DX2                !
 ! D8    D(9,1,5,6)              3.2165         estimate D2E/DX2                !
 ! D9    D(1,2,3,4)              0.6837         estimate D2E/DX2                !
 ! D10   D(8,2,3,4)            179.2504         estimate D2E/DX2                !
 ! D11   D(2,3,4,5)             -2.4462         estimate D2E/DX2                !
 ! D12   D(2,3,4,7)            178.6065         estimate D2E/DX2                !
 ! D13   D(3,4,5,1)              3.0312         estimate D2E/DX2                !
 ! D14   D(3,4,5,6)            179.0921         estimate D2E/DX2                !
 ! D15   D(7,4,5,1)           -178.2697         estimate D2E/DX2                !
 ! D16   D(7,4,5,6)             -2.2089         estimate D2E/DX2                !
 --------------------------------------------------------------------------------
 Trust Radius=3.00D-01 FncErr=1.00D-07 GrdErr=1.00D-07
 Number of steps in this run=     48 maximum allowed number of steps=    100.
 GradGradGradGradGradGradGradGradGradGradGradGradGradGradGradGradGradGrad

 Leave Link  103 at Sat Mar 12 19:22:14 2016, MaxMem=    33554432 cpu:         0.0
 (Enter /opt/g09/g09/l202.exe)
                          Input orientation:                          
 ---------------------------------------------------------------------
 Center     Atomic      Atomic             Coordinates (Angstroms)
 Number     Number       Type             X           Y           Z
 ---------------------------------------------------------------------
      1          6           0        0.931971   -0.719163   -0.012492
      2          6           0       -0.355379   -1.099837   -0.009632
      3          8           0       -1.156566   -0.000469   -0.000471
      4          6           0       -0.327881    1.094516   -0.013306
      5          6           0        0.939859    0.740810    0.022402
      6          1           0        1.830063    1.360805    0.010518
      7          1           0       -0.820917    2.043708   -0.031574
      8          1           0       -0.856003   -2.059112    0.011259
      9          1           0        1.811804   -1.380626   -0.005279
 ---------------------------------------------------------------------
                    Distance matrix (angstroms):
                    1          2          3          4          5
     1  C    0.000000
     2  C    1.342457   0.000000
     3  O    2.208767   1.360366   0.000000
     4  C    2.208316   2.194528   1.373272   0.000000
     5  C    1.460411   2.250922   2.223739   1.316643   0.000000
     6  H    2.265693   3.291097   3.282246   2.174442   1.084895
     7  H    3.272069   3.177905   2.071784   1.069759   2.191070
     8  H    2.234475   1.082252   2.080502   3.197638   3.326381
     9  H    1.100769   2.185302   3.273542   3.271795   2.293806
                    6          7          8          9
     6  H    0.000000
     7  H    2.737850   0.000000
     8  H    4.348653   4.103194   0.000000
     9  H    2.741537   4.319488   2.752782   0.000000
 Stoichiometry    C4H4O
 Framework group  C1[X(C4H4O)]
 Deg. of freedom    21
 Full point group                 C1      NOp   1
 Largest Abelian subgroup         C1      NOp   1
 Largest concise Abelian subgroup C1      NOp   1
                         Standard orientation:                         
 ---------------------------------------------------------------------
 Center     Atomic      Atomic             Coordinates (Angstroms)
 Number     Number       Type             X           Y           Z
 ---------------------------------------------------------------------
      1          6           0        0.548555    1.046545   -0.012488
      2          6           0        1.145525   -0.155842   -0.003358
      3          8           0        0.200776   -1.134582    0.007201
      4          6           0       -1.020677   -0.507215   -0.011263
      5          6           0       -0.890990    0.802661    0.019635
      6          1           0       -1.655181    1.572546    0.002747
      7          1           0       -1.870571   -1.156631   -0.029181
      8          1           0        2.176705   -0.483440    0.021492
      9          1           0        1.048357    2.027293   -0.007833
 ---------------------------------------------------------------------
 Rotational constants (GHZ):      9.5801441      9.2776686      4.7141398
 Leave Link  202 at Sat Mar 12 19:22:14 2016, MaxMem=    33554432 cpu:         0.0
 (Enter /opt/g09/g09/l301.exe)

 Semi-emprical parameters in input format:
 Method=8 CoreType=1 PeptideFC=0.0114505045 RIJScale=0.5291772086
 ****
 H       
 PQN=1 NValence=1 F0ss=0.4721553327 ZetaOverlap=1.1880780000 U=-0.4188110042
 Beta=-0.2268825074 CoreKO=1.0589197790 KON=0,0,0,1.0589197790 KON=1,0,1,1.0148831252
 KON=0,1,1,1.0904525133 KON=2,1,1,1.0589197790 EISol=-0.4188110042 EHeat=0.0830298228
 Alpha=1.5252601686
 GCore=0.0083435813,1.4001425905,2.2676713595
 GCore=0.0003534810,1.4001425905,3.5179486326
 GCore=-0.0012733648,0.5600570362,3.8993913729
 ****
 C       
 PQN=2,2 NValence=4 F0ss=0.4494442496 F0sp=0.4215147623 F0pp=0.3768030831 F2pp=0.1898715146
 G1sp=0.2679025821
 ZetaOverlap=1.8086650000,1.6851160000
 U=-1.9120180828,-1.4557965594
 Beta=-0.5775444233,-0.2836784428 DDN=0,1,0.8236736000 DDN=1,1,0.7268015000
 CoreKO=1.1124284736 KON=0,0,0,1.1124284736 KON=1,0,1,0.7843091373 KON=0,1,1,1.1124284736
 KON=2,1,1,0.7657521931 EISol=-4.4398989268 EHeat=0.2723305520 Alpha=1.4014062429
 DipHyp=1.6472524267
 GCore=0.0008252163,1.3824781042,3.0235618126
 GCore=0.0031892455,1.4001425905,3.4088448461
 GCore=-0.0013931594,1.3450400410,3.8739385724
 GCore=-0.0000875022,1.4001425905,5.0077742521
 ****
 O       
 PQN=2,2 NValence=6 F0ss=0.5666745976 F0sp=0.5321302318 F0pp=0.4958708974 F2pp=0.2492278472
 G1sp=0.4343770262
 ZetaOverlap=3.1080320000,2.5240390000
 U=-3.5951865036,-2.8760896690
 Beta=-1.0757546603,-1.1127426044 DDN=0,1,0.4887653308 DDN=1,1,0.5063294379
 CoreKO=0.8822957477 KON=0,0,0,0.8822957477 KON=1,0,1,0.5019543089 KON=0,1,1,0.8822957477
 KON=2,1,1,0.5515584117 EISol=-11.6164441184 EHeat=0.0949133088 Alpha=2.3050529976
 DipHyp=0.9774744234
 GCore=0.0195117322,1.4001425905,1.6023328031
 GCore=0.0056550009,1.9601996266,2.7307884326
 ****
 
 Standard basis: VSTO-6G (5D, 7F)
 Ernie: Thresh=  0.10000D-02 Tol=  0.10000D-05 Strict=F.
  NNHCO=     0 NNPyr=     0 NCTC=     0               EPep=         0.000000000
    EC=        68.819256696  ECS=         1.842981943   EG=         0.356519921
   EHC=         0.000000000  EAt=       -31.051283842  AtH=         1.516354808
 EPDDG=         0.000000000  ECC=        71.018758561 EAtT=        32.567638650
 There are    24 symmetry adapted cartesian basis functions of A   symmetry.
 There are    24 symmetry adapted basis functions of A   symmetry.
    24 basis functions,   144 primitive gaussians,    24 cartesian basis functions
    13 alpha electrons       13 beta electrons
       nuclear repulsion energy       103.5863972109 Hartrees.
 IExCor=    0 DFT=F Ex=HF Corr=None ExCW=0 ScaHFX=  1.000000
 ScaDFX=  1.000000  1.000000  1.000000  1.000000 ScalE2=  1.000000  1.000000
 IRadAn=      0 IRanWt=     -1 IRanGd=            0 ICorTp=0 IEmpDi=  4
 Integral buffers will be    131072 words long.
 Regular integral format.
 Two-electron integral symmetry is turned off.
 Leave Link  301 at Sat Mar 12 19:22:14 2016, MaxMem=    33554432 cpu:         0.0
 (Enter /opt/g09/g09/l302.exe)
 Do NDO integrals.
 NPDir=0 NMtPBC=     1 NCelOv=     1 NCel=       1 NClECP=     1 NCelD=      1
         NCelK=      1 NCelE2=     1 NClLst=     1 CellRange=     0.0.
 One-electron integrals computed using PRISM.
 NBasis=    24 RedAO= F EigKep=  0.00D+00  NBF=    24
 NBsUse=    24 1.00D-04 EigRej=  0.00D+00 NBFU=    24
 Leave Link  302 at Sat Mar 12 19:22:14 2016, MaxMem=    33554432 cpu:         0.0
 (Enter /opt/g09/g09/l303.exe)
 DipDrv:  MaxL=1.
 Leave Link  303 at Sat Mar 12 19:22:14 2016, MaxMem=    33554432 cpu:         0.0
 (Enter /opt/g09/g09/l401.exe)
 Simple Huckel Guess.
 JPrj=0 DoOrth=F DoCkMO=F.
 Leave Link  401 at Sat Mar 12 19:22:14 2016, MaxMem=    33554432 cpu:         0.0
 (Enter /opt/g09/g09/l502.exe)
 Closed shell SCF:
 Using DIIS extrapolation, IDIIS=  1040.
 Overlap will be assumed to be unity.
 Two-electron integral symmetry not used.
 Keep J ints in memory in canonical form, NReq=888082.
 IVT=       79475 IEndB=       79475 NGot=    33554432 MDV=    33473473
 LenX=    33473473 LenY=    33472456
 Requested convergence on RMS density matrix=1.00D-08 within 128 cycles.
 Requested convergence on MAX density matrix=1.00D-06.
 Requested convergence on             energy=1.00D-06.
 No special actions if energy rises.
 FoFCou: FMM=F IPFlag=           0 FMFlag=           0 FMFlg1=           0
         NFxFlg=           0 DoJE=F BraDBF=F KetDBF=F FulRan=T
         wScrn=  0.000000 ICntrl=     600 IOpCl=  2 I1Cent=           0 NGrid=           0
         NMat0=    1 NMatS0=     54 NMatT0=    0 NMatD0=    1 NMtDS0=    0 NMtDT0=    0
 Symmetry not used in FoFCou.

 Cycle   1  Pass 1  IDiag  1:
 E= 0.279241894196204    
 DIIS: error= 6.03D-02 at cycle   1 NSaved=   1.
 NSaved= 1 IEnMin= 1 EnMin= 0.279241894196204     IErMin= 1 ErrMin= 6.03D-02
 ErrMax= 6.03D-02  0.00D+00 EMaxC= 1.00D-01 BMatC= 1.12D-01 BMatP= 1.12D-01
 IDIUse=3 WtCom= 3.97D-01 WtEn= 6.03D-01
 Coeff-Com:  0.100D+01
 Coeff-En:   0.100D+01
 Coeff:      0.100D+01
 GapD=    2.000 DampG=2.000 DampE=0.500 DampFc=1.0000 IDamp=-1.
 RMSDP=1.95D-02 MaxDP=1.63D-01              OVMax= 0.00D+00

 Cycle   2  Pass 1  IDiag  1:
 E=-0.244156965045761E-02 Delta-E=       -0.281683463847 Rises=F Damp=F
 DIIS: error= 2.06D-02 at cycle   2 NSaved=   2.
 NSaved= 2 IEnMin= 2 EnMin=-0.244156965045761E-02 IErMin= 2 ErrMin= 2.06D-02
 ErrMax= 2.06D-02  0.00D+00 EMaxC= 1.00D-01 BMatC= 9.80D-03 BMatP= 1.12D-01
 IDIUse=3 WtCom= 7.94D-01 WtEn= 2.06D-01
 Coeff-Com: -0.362D+00 0.136D+01
 Coeff-En:   0.000D+00 0.100D+01
 Coeff:     -0.287D+00 0.129D+01
 RMSDP=8.31D-03 MaxDP=7.72D-02 DE=-2.82D-01 OVMax= 0.00D+00

 Cycle   3  Pass 1  IDiag  1:
 E=-0.339237569394726E-01 Delta-E=       -0.031482187289 Rises=F Damp=F
 DIIS: error= 3.87D-03 at cycle   3 NSaved=   3.
 NSaved= 3 IEnMin= 3 EnMin=-0.339237569394726E-01 IErMin= 3 ErrMin= 3.87D-03
 ErrMax= 3.87D-03  0.00D+00 EMaxC= 1.00D-01 BMatC= 3.88D-04 BMatP= 9.80D-03
 IDIUse=3 WtCom= 9.61D-01 WtEn= 3.87D-02
 Coeff-Com:  0.140D+00-0.620D+00 0.148D+01
 Coeff-En:   0.000D+00 0.000D+00 0.100D+01
 Coeff:      0.134D+00-0.596D+00 0.146D+01
 RMSDP=2.56D-03 MaxDP=3.03D-02 DE=-3.15D-02 OVMax= 0.00D+00

 Cycle   4  Pass 1  IDiag  3:
 E=-0.360041863887659E-01 Delta-E=       -0.002080429449 Rises=F Damp=F
 DIIS: error= 1.12D-03 at cycle   4 NSaved=   4.
 NSaved= 4 IEnMin= 4 EnMin=-0.360041863887659E-01 IErMin= 4 ErrMin= 1.12D-03
 ErrMax= 1.12D-03  0.00D+00 EMaxC= 1.00D-01 BMatC= 2.59D-05 BMatP= 3.88D-04
 IDIUse=3 WtCom= 9.89D-01 WtEn= 1.12D-02
 Coeff-Com:  0.137D-01-0.492D-01-0.183D+00 0.122D+01
 Coeff-En:   0.000D+00 0.000D+00 0.000D+00 0.100D+01
 Coeff:      0.136D-01-0.486D-01-0.181D+00 0.122D+01
 Gap=     0.391 Goal=   None    Shift=    0.000
 RMSDP=7.70D-04 MaxDP=9.72D-03 DE=-2.08D-03 OVMax= 7.71D-03

 Cycle   5  Pass 1  IDiag  3:
 E=-0.361576787661164E-01 Delta-E=       -0.000153492377 Rises=F Damp=F
 DIIS: error= 1.86D-04 at cycle   5 NSaved=   5.
 NSaved= 5 IEnMin= 5 EnMin=-0.361576787661164E-01 IErMin= 5 ErrMin= 1.86D-04
 ErrMax= 1.86D-04  0.00D+00 EMaxC= 1.00D-01 BMatC= 1.50D-06 BMatP= 2.59D-05
 IDIUse=3 WtCom= 9.98D-01 WtEn= 1.86D-03
 Coeff-Com: -0.752D-02 0.307D-01 0.177D-01-0.460D+00 0.142D+01
 Coeff-En:   0.000D+00 0.000D+00 0.000D+00 0.000D+00 0.100D+01
 Coeff:     -0.750D-02 0.306D-01 0.177D-01-0.459D+00 0.142D+01
 Gap=     0.391 Goal=   None    Shift=    0.000
 RMSDP=2.12D-04 MaxDP=1.78D-03 DE=-1.53D-04 OVMax= 2.24D-03

 Cycle   6  Pass 1  IDiag  3:
 E=-0.361682142955573E-01 Delta-E=       -0.000010535529 Rises=F Damp=F
 DIIS: error= 8.05D-05 at cycle   6 NSaved=   6.
 NSaved= 6 IEnMin= 6 EnMin=-0.361682142955573E-01 IErMin= 6 ErrMin= 8.05D-05
 ErrMax= 8.05D-05  0.00D+00 EMaxC= 1.00D-01 BMatC= 1.40D-07 BMatP= 1.50D-06
 IDIUse=1 WtCom= 1.00D+00 WtEn= 0.00D+00
 Coeff-Com:  0.277D-02-0.111D-01 0.194D-02 0.143D+00-0.676D+00 0.154D+01
 Coeff:      0.277D-02-0.111D-01 0.194D-02 0.143D+00-0.676D+00 0.154D+01
 Gap=     0.391 Goal=   None    Shift=    0.000
 RMSDP=7.97D-05 MaxDP=6.74D-04 DE=-1.05D-05 OVMax= 1.06D-03

 Cycle   7  Pass 1  IDiag  3:
 E=-0.361694339593157E-01 Delta-E=       -0.000001219664 Rises=F Damp=F
 DIIS: error= 2.86D-05 at cycle   7 NSaved=   7.
 NSaved= 7 IEnMin= 7 EnMin=-0.361694339593157E-01 IErMin= 7 ErrMin= 2.86D-05
 ErrMax= 2.86D-05  0.00D+00 EMaxC= 1.00D-01 BMatC= 1.17D-08 BMatP= 1.40D-07
 IDIUse=1 WtCom= 1.00D+00 WtEn= 0.00D+00
 Coeff-Com: -0.424D-03 0.123D-02 0.731D-03-0.275D-01 0.156D+00-0.624D+00
 Coeff-Com:  0.149D+01
 Coeff:     -0.424D-03 0.123D-02 0.731D-03-0.275D-01 0.156D+00-0.624D+00
 Coeff:      0.149D+01
 Gap=     0.391 Goal=   None    Shift=    0.000
 RMSDP=2.71D-05 MaxDP=2.58D-04 DE=-1.22D-06 OVMax= 3.32D-04

 Cycle   8  Pass 1  IDiag  3:
 E=-0.361695429161131E-01 Delta-E=       -0.000000108957 Rises=F Damp=F
 DIIS: error= 5.71D-06 at cycle   8 NSaved=   8.
 NSaved= 8 IEnMin= 8 EnMin=-0.361695429161131E-01 IErMin= 8 ErrMin= 5.71D-06
 ErrMax= 5.71D-06  0.00D+00 EMaxC= 1.00D-01 BMatC= 5.56D-10 BMatP= 1.17D-08
 IDIUse=1 WtCom= 1.00D+00 WtEn= 0.00D+00
 Coeff-Com:  0.291D-04 0.175D-03-0.139D-02 0.941D-02-0.482D-01 0.231D+00
 Coeff-Com: -0.730D+00 0.154D+01
 Coeff:      0.291D-04 0.175D-03-0.139D-02 0.941D-02-0.482D-01 0.231D+00
 Coeff:     -0.730D+00 0.154D+01
 Gap=     0.391 Goal=   None    Shift=    0.000
 RMSDP=5.53D-06 MaxDP=5.33D-05 DE=-1.09D-07 OVMax= 6.80D-05

 Cycle   9  Pass 1  IDiag  3:
 E=-0.361695474407782E-01 Delta-E=       -0.000000004525 Rises=F Damp=F
 DIIS: error= 6.98D-07 at cycle   9 NSaved=   9.
 NSaved= 9 IEnMin= 9 EnMin=-0.361695474407782E-01 IErMin= 9 ErrMin= 6.98D-07
 ErrMax= 6.98D-07  0.00D+00 EMaxC= 1.00D-01 BMatC= 1.93D-11 BMatP= 5.56D-10
 IDIUse=1 WtCom= 1.00D+00 WtEn= 0.00D+00
 Coeff-Com:  0.177D-04-0.180D-03 0.534D-03-0.209D-02 0.108D-01-0.657D-01
 Coeff-Com:  0.235D+00-0.610D+00 0.143D+01
 Coeff:      0.177D-04-0.180D-03 0.534D-03-0.209D-02 0.108D-01-0.657D-01
 Coeff:      0.235D+00-0.610D+00 0.143D+01
 Gap=     0.391 Goal=   None    Shift=    0.000
 RMSDP=8.04D-07 MaxDP=6.57D-06 DE=-4.52D-09 OVMax= 1.05D-05

 Cycle  10  Pass 1  IDiag  3:
 E=-0.361695475597799E-01 Delta-E=       -0.000000000119 Rises=F Damp=F
 DIIS: error= 1.09D-07 at cycle  10 NSaved=  10.
 NSaved=10 IEnMin=10 EnMin=-0.361695475597799E-01 IErMin=10 ErrMin= 1.09D-07
 ErrMax= 1.09D-07  0.00D+00 EMaxC= 1.00D-01 BMatC= 8.40D-13 BMatP= 1.93D-11
 IDIUse=1 WtCom= 1.00D+00 WtEn= 0.00D+00
 Coeff-Com: -0.939D-05 0.762D-04-0.208D-03 0.689D-03-0.314D-02 0.203D-01
 Coeff-Com: -0.752D-01 0.202D+00-0.594D+00 0.145D+01
 Coeff:     -0.939D-05 0.762D-04-0.208D-03 0.689D-03-0.314D-02 0.203D-01
 Coeff:     -0.752D-01 0.202D+00-0.594D+00 0.145D+01
 Gap=     0.391 Goal=   None    Shift=    0.000
 RMSDP=1.46D-07 MaxDP=8.05D-07 DE=-1.19D-10 OVMax= 1.44D-06

 Cycle  11  Pass 1  IDiag  3:
 E=-0.361695475646258E-01 Delta-E=       -0.000000000005 Rises=F Damp=F
 DIIS: error= 2.27D-08 at cycle  11 NSaved=  11.
 NSaved=11 IEnMin=11 EnMin=-0.361695475646258E-01 IErMin=11 ErrMin= 2.27D-08
 ErrMax= 2.27D-08  0.00D+00 EMaxC= 1.00D-01 BMatC= 3.67D-14 BMatP= 8.40D-13
 IDIUse=1 WtCom= 1.00D+00 WtEn= 0.00D+00
 Coeff-Com:  0.336D-05-0.281D-04 0.769D-04-0.262D-03 0.116D-02-0.751D-02
 Coeff-Com:  0.277D-01-0.731D-01 0.219D+00-0.654D+00 0.149D+01
 Coeff:      0.336D-05-0.281D-04 0.769D-04-0.262D-03 0.116D-02-0.751D-02
 Coeff:      0.277D-01-0.731D-01 0.219D+00-0.654D+00 0.149D+01
 Gap=     0.391 Goal=   None    Shift=    0.000
 RMSDP=3.04D-08 MaxDP=1.22D-07 DE=-4.85D-12 OVMax= 1.57D-07

 Cycle  12  Pass 1  IDiag  3:
 E=-0.361695475643842E-01 Delta-E=        0.000000000000 Rises=F Damp=F
 DIIS: error= 4.80D-09 at cycle  12 NSaved=  12.
 NSaved=12 IEnMin=11 EnMin=-0.361695475646258E-01 IErMin=12 ErrMin= 4.80D-09
 ErrMax= 4.80D-09  0.00D+00 EMaxC= 1.00D-01 BMatC= 1.77D-15 BMatP= 3.67D-14
 IDIUse=1 WtCom= 1.00D+00 WtEn= 0.00D+00
 Coeff-Com: -0.852D-06 0.721D-05-0.188D-04 0.646D-04-0.278D-03 0.187D-02
 Coeff-Com: -0.690D-02 0.178D-01-0.532D-01 0.171D+00-0.540D+00 0.141D+01
 Coeff:     -0.852D-06 0.721D-05-0.188D-04 0.646D-04-0.278D-03 0.187D-02
 Coeff:     -0.690D-02 0.178D-01-0.532D-01 0.171D+00-0.540D+00 0.141D+01
 Gap=     0.391 Goal=   None    Shift=    0.000
 RMSDP=7.07D-09 MaxDP=3.36D-08 DE= 2.42D-13 OVMax= 4.78D-08

 Cycle  13  Pass 2  IDiag  1:
 SCF Done:  E(RAM1) = -0.361695475644E-01 A.U. after   13 cycles
            NFock= 12  Conv=0.71D-08     -V/T= 0.9978
 KE=-1.658984842975D+01 PE=-1.712521745582D+02 EE= 8.421945622947D+01
 Leave Link  502 at Sat Mar 12 19:22:14 2016, MaxMem=    33554432 cpu:         0.0
 (Enter /opt/g09/g09/l601.exe)
 Copying SCF densities to generalized density rwf, IOpCl= 0 IROHF=0.

 **********************************************************************

            Population analysis using the SCF density.

 **********************************************************************

 Orbital symmetries:
       Occupied  (A) (A) (A) (A) (A) (A) (A) (A) (A) (A) (A) (A)
                 (A)
       Virtual   (A) (A) (A) (A) (A) (A) (A) (A) (A) (A) (A)
 The electronic state is 1-A.
 Alpha  occ. eigenvalues --   -1.57350  -1.23573  -1.11672  -0.83197  -0.81190
 Alpha  occ. eigenvalues --   -0.69076  -0.60780  -0.56675  -0.51598  -0.50722
 Alpha  occ. eigenvalues --   -0.49451  -0.39388  -0.35483
 Alpha virt. eigenvalues --    0.03635   0.06562   0.09917   0.13948   0.15010
 Alpha virt. eigenvalues --    0.15685   0.18077   0.18239   0.19407   0.20862
 Alpha virt. eigenvalues --    0.22733
          Condensed to atoms (all electrons):
               1          2          3          4          5          6
     1  C    4.220752   0.000000   0.000000   0.000000   0.000000   0.000000
     2  C    0.000000   4.096049   0.000000   0.000000   0.000000   0.000000
     3  O    0.000000   0.000000   6.088761   0.000000   0.000000   0.000000
     4  C    0.000000   0.000000   0.000000   4.093192   0.000000   0.000000
     5  C    0.000000   0.000000   0.000000   0.000000   4.200980   0.000000
     6  H    0.000000   0.000000   0.000000   0.000000   0.000000   0.836351
     7  H    0.000000   0.000000   0.000000   0.000000   0.000000   0.000000
     8  H    0.000000   0.000000   0.000000   0.000000   0.000000   0.000000
     9  H    0.000000   0.000000   0.000000   0.000000   0.000000   0.000000
               7          8          9
     1  C    0.000000   0.000000   0.000000
     2  C    0.000000   0.000000   0.000000
     3  O    0.000000   0.000000   0.000000
     4  C    0.000000   0.000000   0.000000
     5  C    0.000000   0.000000   0.000000
     6  H    0.000000   0.000000   0.000000
     7  H    0.815681   0.000000   0.000000
     8  H    0.000000   0.808581   0.000000
     9  H    0.000000   0.000000   0.839654
 Mulliken charges:
               1
     1  C   -0.220752
     2  C   -0.096049
     3  O   -0.088761
     4  C   -0.093192
     5  C   -0.200980
     6  H    0.163649
     7  H    0.184319
     8  H    0.191419
     9  H    0.160346
 Sum of Mulliken charges =   0.00000
 Mulliken charges with hydrogens summed into heavy atoms:
               1
     1  C   -0.060406
     2  C    0.095371
     3  O   -0.088761
     4  C    0.091127
     5  C   -0.037331
 Charge=              0.0000 electrons
 Dipole moment (field-independent basis, Debye):
    X=             -0.0344    Y=              0.4077    Z=             -0.0082  Tot=              0.4093
 N-N= 1.035863972109D+02 E-N=-1.712521744646D+02  KE=-1.658984842975D+01
 Leave Link  601 at Sat Mar 12 19:22:14 2016, MaxMem=    33554432 cpu:         0.0
 (Enter /opt/g09/g09/l701.exe)
 Compute integral first derivatives.
 ... and contract with generalized density number  0.
 Leave Link  701 at Sat Mar 12 19:22:14 2016, MaxMem=    33554432 cpu:         0.0
 (Enter /opt/g09/g09/l702.exe)
 L702 exits ... SP integral derivatives will be done elsewhere.
 Leave Link  702 at Sat Mar 12 19:22:14 2016, MaxMem=    33554432 cpu:         0.0
 (Enter /opt/g09/g09/l703.exe)
 Compute integral first derivatives, UseDBF=F ICtDFT=           0.
 Integral derivatives from FoFJK, PRISM(SPDF).
 Calling FoFJK, ICntrl=      2127 FMM=F ISym2X=0 I1Cent= 0 IOpClX= 0 NMat=1 NMatS=1 NMatT=0.
 FoFJK:  IHMeth= 8 ICntrl=    2127 DoSepK=F KAlg= 0 I1Cent=   0 FoldK=F
 IRaf=         0 NMat=   1 IRICut=       1 DoRegI=T DoRafI=F ISym2E= 0.
 FoFCou: FMM=F IPFlag=           0 FMFlag=      100000 FMFlg1=         800
         NFxFlg=           0 DoJE=F BraDBF=F KetDBF=F FulRan=T
         wScrn=  0.000000 ICntrl=    2127 IOpCl=  0 I1Cent=           0 NGrid=           0
         NMat0=    1 NMatS0=      1 NMatT0=    0 NMatD0=    1 NMtDS0=    0 NMtDT0=    0
 Symmetry not used in FoFCou.
 Leave Link  703 at Sat Mar 12 19:22:14 2016, MaxMem=    33554432 cpu:         0.0
 (Enter /opt/g09/g09/l716.exe)
 Dipole        =-1.35177119D-02 1.60419265D-01-3.20731605D-03
 ***** Axes restored to original set *****
 -------------------------------------------------------------------
 Center     Atomic                   Forces (Hartrees/Bohr)
 Number     Number              X              Y              Z
 -------------------------------------------------------------------
      1        6           0.061082953   -0.001962496    0.005390723
      2        6          -0.015168178   -0.034303398    0.001005633
      3        8          -0.049494781    0.008670323   -0.002408353
      4        6          -0.055132395    0.039877851    0.003123989
      5        6           0.077548972   -0.030430208   -0.006723944
      6        1           0.001346230   -0.000575270    0.001413926
      7        1          -0.010250673    0.011427153    0.000030449
      8        1          -0.003820012   -0.002108756   -0.001069607
      9        1          -0.006112115    0.009404799   -0.000762815
 -------------------------------------------------------------------
 Cartesian Forces:  Max     0.077548972 RMS     0.027020954
 Leave Link  716 at Sat Mar 12 19:22:14 2016, MaxMem=    33554432 cpu:         0.0
 (Enter /opt/g09/g09/l103.exe)

 GradGradGradGradGradGradGradGradGradGradGradGradGradGradGradGradGradGrad
 Berny optimization.
 FormGI is forming the generalized inverse of G from B-inverse, IUseBI=4.
 Internal  Forces:  Max     0.086877877 RMS     0.018894376
 Search for a local minimum.
 Step number   1 out of a maximum of   48
 All quantities printed in internal units (Hartrees-Bohrs-Radians)
 RMS Force = .18894D-01 SwitMx=.10000D-02 MixMth= 1
 Mixed Optimization -- RFO/linear search
 Second derivative matrix not updated -- first step.
 ITU=  0
     Eigenvalues ---    0.01866   0.02147   0.02321   0.02587   0.02713
     Eigenvalues ---    0.02948   0.15940   0.15985   0.15994   0.15997
     Eigenvalues ---    0.21996   0.22880   0.33597   0.35409   0.35456
     Eigenvalues ---    0.35724   0.37261   0.46746   0.49289   0.54285
     Eigenvalues ---    0.60699
 RFO step:  Lambda=-2.39288550D-02 EMin= 1.86568308D-02
 Linear search not attempted -- first point.
 Iteration  1 RMS(Cart)=  0.04231195 RMS(Int)=  0.00079834
 Iteration  2 RMS(Cart)=  0.00056083 RMS(Int)=  0.00038786
 Iteration  3 RMS(Cart)=  0.00000042 RMS(Int)=  0.00038786
 ITry= 1 IFail=0 DXMaxC= 9.61D-02 DCOld= 1.00D+10 DXMaxT= 3.00D-01 DXLimC= 3.00D+00 Rises=F
 Variable       Old X    -DE/DX   Delta X   Delta X   Delta X     New X
                                 (Linear)    (Quad)   (Total)
    R1        2.53688   0.05210   0.00000   0.08488   0.08471   2.62159
    R2        2.75978  -0.00028   0.00000  -0.00232  -0.00249   2.75728
    R3        2.08015  -0.01054   0.00000  -0.02929  -0.02929   2.05086
    R4        2.57072   0.04310   0.00000   0.07687   0.07695   2.64767
    R5        2.04516   0.00362   0.00000   0.00949   0.00949   2.05465
    R6        2.59511   0.02615   0.00000   0.05265   0.05286   2.64797
    R7        2.48809   0.08688   0.00000   0.13587   0.13594   2.62403
    R8        2.02155   0.01486   0.00000   0.03748   0.03748   2.05903
    R9        2.05016   0.00076   0.00000   0.00201   0.00201   2.05217
    A1        1.86357  -0.00196   0.00000  -0.01828  -0.01908   1.84449
    A2        2.20939   0.00500   0.00000   0.03145   0.03152   2.24091
    A3        2.20963  -0.00298   0.00000  -0.01191  -0.01184   2.19778
    A4        1.91307   0.01018   0.00000   0.03167   0.03133   1.94440
    A5        2.33918  -0.00260   0.00000  -0.00223  -0.00206   2.33712
    A6        2.03057  -0.00756   0.00000  -0.02926  -0.02910   2.00147
    A7        1.86389  -0.00704   0.00000  -0.02155  -0.02150   1.84239
    A8        1.94611  -0.00610   0.00000  -0.01361  -0.01377   1.93235
    A9        2.01477  -0.00082   0.00000  -0.01396  -0.01412   2.00065
   A10        2.32210   0.00694   0.00000   0.02817   0.02802   2.35012
   A11        1.83663   0.00508   0.00000   0.02528   0.02446   1.86109
   A12        2.18398  -0.00374   0.00000  -0.01789  -0.01817   2.16582
   A13        2.26042  -0.00118   0.00000  -0.00395  -0.00423   2.25619
    D1        0.01921  -0.00106   0.00000  -0.02758  -0.02776  -0.00855
    D2       -3.09120  -0.00158   0.00000  -0.03537  -0.03580  -3.12700
    D3        3.12546   0.00057   0.00000   0.00892   0.00928   3.13474
    D4        0.01505   0.00005   0.00000   0.00114   0.00124   0.01628
    D5       -0.04406   0.00276   0.00000   0.05468   0.05425   0.01019
    D6       -3.12080   0.00032   0.00000   0.00277   0.00234  -3.11846
    D7        3.13288   0.00092   0.00000   0.01702   0.01726  -3.13304
    D8        0.05614  -0.00151   0.00000  -0.03488  -0.03465   0.02149
    D9        0.01193  -0.00010   0.00000  -0.00786  -0.00838   0.00355
   D10        3.12851   0.00034   0.00000  -0.00130  -0.00171   3.12680
   D11       -0.04269   0.00268   0.00000   0.04722   0.04600   0.00330
   D12        3.11727   0.00122   0.00000   0.01840   0.01787   3.13515
   D13        0.05290  -0.00266   0.00000  -0.06059  -0.06135  -0.00844
   D14        3.12575  -0.00019   0.00000  -0.00620  -0.00644   3.11931
   D15       -3.11139  -0.00101   0.00000  -0.02572  -0.02618  -3.13758
   D16       -0.03855   0.00146   0.00000   0.02867   0.02872  -0.00983
         Item               Value     Threshold  Converged?
 Maximum Force            0.086878     0.000450     NO 
 RMS     Force            0.018894     0.000300     NO 
 Maximum Displacement     0.096149     0.001800     NO 
 RMS     Displacement     0.042233     0.001200     NO 
 Predicted change in Energy=-1.264108D-02
 Lowest energy point so far.  Saving SCF results.
 GradGradGradGradGradGradGradGradGradGradGradGradGradGradGradGradGradGrad

 Leave Link  103 at Sat Mar 12 19:22:14 2016, MaxMem=    33554432 cpu:         0.0
 (Enter /opt/g09/g09/l202.exe)
                          Input orientation:                          
 ---------------------------------------------------------------------
 Center     Atomic      Atomic             Coordinates (Angstroms)
 Number     Number       Type             X           Y           Z
 ---------------------------------------------------------------------
      1          6           0        0.973695   -0.734815    0.004919
      2          6           0       -0.361529   -1.110971   -0.010577
      3          8           0       -1.207446    0.005924   -0.013052
      4          6           0       -0.358365    1.120580   -0.003251
      5          6           0        0.972450    0.724270    0.000806
      6          1           0        1.871202    1.333717   -0.010563
      7          1           0       -0.871044    2.081998   -0.010205
      8          1           0       -0.875049   -2.069300   -0.002819
      9          1           0        1.853037   -1.370771    0.016167
 ---------------------------------------------------------------------
                    Distance matrix (angstroms):
                    1          2          3          4          5
     1  C    0.000000
     2  C    1.387284   0.000000
     3  O    2.303561   1.401084   0.000000
     4  C    2.284062   2.231565   1.401246   0.000000
     5  C    1.459091   2.268863   2.295247   1.388577   0.000000
     6  H    2.254901   3.310828   3.352776   2.239743   1.085960
     7  H    3.367154   3.233366   2.103154   1.089594   2.289545
     8  H    2.280081   1.087271   2.101701   3.231454   3.349224
     9  H    1.085269   2.229913   3.355994   3.331291   2.272634
                    6          7          8          9
     6  H    0.000000
     7  H    2.842505   0.000000
     8  H    4.372926   4.151307   0.000000
     9  H    2.704681   4.398059   2.816160   0.000000
 Stoichiometry    C4H4O
 Framework group  C1[X(C4H4O)]
 Deg. of freedom    21
 Full point group                 C1      NOp   1
 RotChk:  IX=2 Diff= 6.26D-01
 Largest Abelian subgroup         C1      NOp   1
 Largest concise Abelian subgroup C1      NOp   1
                         Standard orientation:                         
 ---------------------------------------------------------------------
 Center     Atomic      Atomic             Coordinates (Angstroms)
 Number     Number       Type             X           Y           Z
 ---------------------------------------------------------------------
      1          6           0        0.972975    0.748165    0.002693
      2          6           0        0.975284   -0.639098   -0.004568
      3          8           0       -0.328282   -1.152655   -0.000994
      4          6           0       -1.172802   -0.034509    0.004110
      5          6           0       -0.432452    1.140227   -0.000514
      6          1           0       -0.777123    2.169903   -0.017207
      7          1           0       -2.236838   -0.269100    0.000997
      8          1           0        1.759751   -1.391869    0.005856
      9          1           0        1.822432    1.423593    0.007976
 ---------------------------------------------------------------------
 Rotational constants (GHZ):      9.1899446      8.7714236      4.4879768
 Leave Link  202 at Sat Mar 12 19:22:14 2016, MaxMem=    33554432 cpu:         0.0
 (Enter /opt/g09/g09/l301.exe)

 Semi-emprical parameters in input format:
 Method=8 CoreType=1 PeptideFC=0.0114505045 RIJScale=0.5291772086
 ****
 H       
 PQN=1 NValence=1 F0ss=0.4721553327 ZetaOverlap=1.1880780000 U=-0.4188110042
 Beta=-0.2268825074 CoreKO=1.0589197790 KON=0,0,0,1.0589197790 KON=1,0,1,1.0148831252
 KON=0,1,1,1.0904525133 KON=2,1,1,1.0589197790 EISol=-0.4188110042 EHeat=0.0830298228
 Alpha=1.5252601686
 GCore=0.0083435813,1.4001425905,2.2676713595
 GCore=0.0003534810,1.4001425905,3.5179486326
 GCore=-0.0012733648,0.5600570362,3.8993913729
 ****
 C       
 PQN=2,2 NValence=4 F0ss=0.4494442496 F0sp=0.4215147623 F0pp=0.3768030831 F2pp=0.1898715146
 G1sp=0.2679025821
 ZetaOverlap=1.8086650000,1.6851160000
 U=-1.9120180828,-1.4557965594
 Beta=-0.5775444233,-0.2836784428 DDN=0,1,0.8236736000 DDN=1,1,0.7268015000
 CoreKO=1.1124284736 KON=0,0,0,1.1124284736 KON=1,0,1,0.7843091373 KON=0,1,1,1.1124284736
 KON=2,1,1,0.7657521931 EISol=-4.4398989268 EHeat=0.2723305520 Alpha=1.4014062429
 DipHyp=1.6472524267
 GCore=0.0008252163,1.3824781042,3.0235618126
 GCore=0.0031892455,1.4001425905,3.4088448461
 GCore=-0.0013931594,1.3450400410,3.8739385724
 GCore=-0.0000875022,1.4001425905,5.0077742521
 ****
 O       
 PQN=2,2 NValence=6 F0ss=0.5666745976 F0sp=0.5321302318 F0pp=0.4958708974 F2pp=0.2492278472
 G1sp=0.4343770262
 ZetaOverlap=3.1080320000,2.5240390000
 U=-3.5951865036,-2.8760896690
 Beta=-1.0757546603,-1.1127426044 DDN=0,1,0.4887653308 DDN=1,1,0.5063294379
 CoreKO=0.8822957477 KON=0,0,0,0.8822957477 KON=1,0,1,0.5019543089 KON=0,1,1,0.8822957477
 KON=2,1,1,0.5515584117 EISol=-11.6164441184 EHeat=0.0949133088 Alpha=2.3050529976
 DipHyp=0.9774744234
 GCore=0.0195117322,1.4001425905,1.6023328031
 GCore=0.0056550009,1.9601996266,2.7307884326
 ****
 
 Standard basis: VSTO-6G (5D, 7F)
 Ernie: Thresh=  0.10000D-02 Tol=  0.10000D-05 Strict=F.
  NNHCO=     0 NNPyr=     0 NCTC=     0               EPep=         0.000000000
    EC=        67.702796831  ECS=         1.683132409   EG=         0.339339827
   EHC=         0.000000000  EAt=       -31.051283842  AtH=         1.516354808
 EPDDG=         0.000000000  ECC=        69.725269067 EAtT=        32.567638650
 There are    24 symmetry adapted cartesian basis functions of A   symmetry.
 There are    24 symmetry adapted basis functions of A   symmetry.
    24 basis functions,   144 primitive gaussians,    24 cartesian basis functions
    13 alpha electrons       13 beta electrons
       nuclear repulsion energy       102.2929077169 Hartrees.
 IExCor=    0 DFT=F Ex=HF Corr=None ExCW=0 ScaHFX=  1.000000
 ScaDFX=  1.000000  1.000000  1.000000  1.000000 ScalE2=  1.000000  1.000000
 IRadAn=      0 IRanWt=     -1 IRanGd=            0 ICorTp=0 IEmpDi=  4
 Integral buffers will be    131072 words long.
 Regular integral format.
 Two-electron integral symmetry is turned off.
 Leave Link  301 at Sat Mar 12 19:22:14 2016, MaxMem=    33554432 cpu:         0.0
 (Enter /opt/g09/g09/l302.exe)
 Do NDO integrals.
 NPDir=0 NMtPBC=     1 NCelOv=     1 NCel=       1 NClECP=     1 NCelD=      1
         NCelK=      1 NCelE2=     1 NClLst=     1 CellRange=     0.0.
 One-electron integrals computed using PRISM.
 NBasis=    24 RedAO= F EigKep=  0.00D+00  NBF=    24
 NBsUse=    24 1.00D-04 EigRej=  0.00D+00 NBFU=    24
 Leave Link  302 at Sat Mar 12 19:22:14 2016, MaxMem=    33554432 cpu:         0.0
 (Enter /opt/g09/g09/l303.exe)
 DipDrv:  MaxL=1.
 Leave Link  303 at Sat Mar 12 19:22:14 2016, MaxMem=    33554432 cpu:         0.0
 (Enter /opt/g09/g09/l401.exe)
 Initial guess from the checkpoint file:  "/opt/g09/scratch/Gau-30966.chk"
 B after Tr=     0.000000    0.000000    0.000000
         Rot=    0.975103    0.000009   -0.000034    0.221751 Ang=  25.62 deg.
 Guess basis will be translated and rotated to current coordinates.
 JPrj=0 DoOrth=T DoCkMO=T.
 Leave Link  401 at Sat Mar 12 19:22:14 2016, MaxMem=    33554432 cpu:         0.0
 (Enter /opt/g09/g09/l502.exe)
 Closed shell SCF:
 Using DIIS extrapolation, IDIIS=  1040.
 Overlap will be assumed to be unity.
 Two-electron integral symmetry not used.
 Keep J ints in memory in canonical form, NReq=888082.
 IVT=       79475 IEndB=       79475 NGot=    33554432 MDV=    33473473
 LenX=    33473473 LenY=    33472456
 Requested convergence on RMS density matrix=1.00D-08 within 128 cycles.
 Requested convergence on MAX density matrix=1.00D-06.
 Requested convergence on             energy=1.00D-06.
 No special actions if energy rises.
 FoFCou: FMM=F IPFlag=           0 FMFlag=           0 FMFlg1=           0
         NFxFlg=           0 DoJE=F BraDBF=F KetDBF=F FulRan=T
         wScrn=  0.000000 ICntrl=     600 IOpCl=  2 I1Cent=           0 NGrid=           0
         NMat0=    1 NMatS0=     54 NMatT0=    0 NMatD0=    1 NMtDS0=    0 NMtDT0=    0
 Symmetry not used in FoFCou.

 Cycle   1  Pass 1  IDiag  1:
 E=-0.392207042109050E-01
 DIIS: error= 4.19D-03 at cycle   1 NSaved=   1.
 NSaved= 1 IEnMin= 1 EnMin=-0.392207042109050E-01 IErMin= 1 ErrMin= 4.19D-03
 ErrMax= 4.19D-03  0.00D+00 EMaxC= 1.00D-01 BMatC= 1.15D-03 BMatP= 1.15D-03
 IDIUse=3 WtCom= 9.58D-01 WtEn= 4.19D-02
 Coeff-Com:  0.100D+01
 Coeff-En:   0.100D+01
 Coeff:      0.100D+01
 GapD=    2.000 DampG=2.000 DampE=1.000 DampFc=2.0000 IDamp=-1.
 RMSDP=2.22D-03 MaxDP=1.08D-02              OVMax= 0.00D+00

 Cycle   2  Pass 1  IDiag  3:
 E=-0.423728322296313E-01 Delta-E=       -0.003152128019 Rises=F Damp=F
 DIIS: error= 1.17D-03 at cycle   2 NSaved=   2.
 NSaved= 2 IEnMin= 2 EnMin=-0.423728322296313E-01 IErMin= 2 ErrMin= 1.17D-03
 ErrMax= 1.17D-03  0.00D+00 EMaxC= 1.00D-01 BMatC= 1.11D-04 BMatP= 1.15D-03
 IDIUse=3 WtCom= 9.88D-01 WtEn= 1.17D-02
 Coeff-Com: -0.354D+00 0.135D+01
 Coeff-En:   0.000D+00 0.100D+01
 Coeff:     -0.350D+00 0.135D+01
 Gap=     0.369 Goal=   None    Shift=    0.000
 RMSDP=1.17D-03 MaxDP=4.45D-03 DE=-3.15D-03 OVMax= 5.50D-03

 Cycle   3  Pass 1  IDiag  3:
 E=-0.428564946656564E-01 Delta-E=       -0.000483662436 Rises=F Damp=F
 DIIS: error= 3.31D-04 at cycle   3 NSaved=   3.
 NSaved= 3 IEnMin= 3 EnMin=-0.428564946656564E-01 IErMin= 3 ErrMin= 3.31D-04
 ErrMax= 3.31D-04  0.00D+00 EMaxC= 1.00D-01 BMatC= 6.12D-06 BMatP= 1.11D-04
 IDIUse=3 WtCom= 9.97D-01 WtEn= 3.31D-03
 Coeff-Com:  0.916D-01-0.483D+00 0.139D+01
 Coeff-En:   0.000D+00 0.000D+00 0.100D+01
 Coeff:      0.913D-01-0.482D+00 0.139D+01
 Gap=     0.368 Goal=   None    Shift=    0.000
 RMSDP=3.91D-04 MaxDP=1.92D-03 DE=-4.84D-04 OVMax= 2.35D-03

 Cycle   4  Pass 1  IDiag  3:
 E=-0.428962248191596E-01 Delta-E=       -0.000039730154 Rises=F Damp=F
 DIIS: error= 9.79D-05 at cycle   4 NSaved=   4.
 NSaved= 4 IEnMin= 4 EnMin=-0.428962248191596E-01 IErMin= 4 ErrMin= 9.79D-05
 ErrMax= 9.79D-05  0.00D+00 EMaxC= 1.00D-01 BMatC= 4.61D-07 BMatP= 6.12D-06
 IDIUse=1 WtCom= 1.00D+00 WtEn= 0.00D+00
 Coeff-Com:  0.930D-02-0.620D-02-0.297D+00 0.129D+01
 Coeff:      0.930D-02-0.620D-02-0.297D+00 0.129D+01
 Gap=     0.368 Goal=   None    Shift=    0.000
 RMSDP=1.28D-04 MaxDP=7.45D-04 DE=-3.97D-05 OVMax= 9.59D-04

 Cycle   5  Pass 1  IDiag  3:
 E=-0.428997609140112E-01 Delta-E=       -0.000003536095 Rises=F Damp=F
 DIIS: error= 3.21D-05 at cycle   5 NSaved=   5.
 NSaved= 5 IEnMin= 5 EnMin=-0.428997609140112E-01 IErMin= 5 ErrMin= 3.21D-05
 ErrMax= 3.21D-05  0.00D+00 EMaxC= 1.00D-01 BMatC= 4.34D-08 BMatP= 4.61D-07
 IDIUse=1 WtCom= 1.00D+00 WtEn= 0.00D+00
 Coeff-Com: -0.121D-01 0.405D-01 0.598D-01-0.720D+00 0.163D+01
 Coeff:     -0.121D-01 0.405D-01 0.598D-01-0.720D+00 0.163D+01
 Gap=     0.368 Goal=   None    Shift=    0.000
 RMSDP=4.76D-05 MaxDP=3.18D-04 DE=-3.54D-06 OVMax= 3.96D-04

 Cycle   6  Pass 1  IDiag  3:
 E=-0.429001338522710E-01 Delta-E=       -0.000000372938 Rises=F Damp=F
 DIIS: error= 8.08D-06 at cycle   6 NSaved=   6.
 NSaved= 6 IEnMin= 6 EnMin=-0.429001338522710E-01 IErMin= 6 ErrMin= 8.08D-06
 ErrMax= 8.08D-06  0.00D+00 EMaxC= 1.00D-01 BMatC= 2.27D-09 BMatP= 4.34D-08
 IDIUse=1 WtCom= 1.00D+00 WtEn= 0.00D+00
 Coeff-Com:  0.769D-02-0.262D-01-0.323D-01 0.448D+00-0.114D+01 0.174D+01
 Coeff:      0.769D-02-0.262D-01-0.323D-01 0.448D+00-0.114D+01 0.174D+01
 Gap=     0.368 Goal=   None    Shift=    0.000
 RMSDP=1.12D-05 MaxDP=8.38D-05 DE=-3.73D-07 OVMax= 1.16D-04

 Cycle   7  Pass 1  IDiag  3:
 E=-0.429001537526972E-01 Delta-E=       -0.000000019900 Rises=F Damp=F
 DIIS: error= 1.92D-06 at cycle   7 NSaved=   7.
 NSaved= 7 IEnMin= 7 EnMin=-0.429001537526972E-01 IErMin= 7 ErrMin= 1.92D-06
 ErrMax= 1.92D-06  0.00D+00 EMaxC= 1.00D-01 BMatC= 1.06D-10 BMatP= 2.27D-09
 IDIUse=1 WtCom= 1.00D+00 WtEn= 0.00D+00
 Coeff-Com: -0.312D-02 0.108D-01 0.110D-01-0.172D+00 0.452D+00-0.829D+00
 Coeff-Com:  0.153D+01
 Coeff:     -0.312D-02 0.108D-01 0.110D-01-0.172D+00 0.452D+00-0.829D+00
 Coeff:      0.153D+01
 Gap=     0.368 Goal=   None    Shift=    0.000
 RMSDP=2.32D-06 MaxDP=1.87D-05 DE=-1.99D-08 OVMax= 2.60D-05

 Cycle   8  Pass 1  IDiag  3:
 E=-0.429001546443004E-01 Delta-E=       -0.000000000892 Rises=F Damp=F
 DIIS: error= 4.63D-07 at cycle   8 NSaved=   8.
 NSaved= 8 IEnMin= 8 EnMin=-0.429001546443004E-01 IErMin= 8 ErrMin= 4.63D-07
 ErrMax= 4.63D-07  0.00D+00 EMaxC= 1.00D-01 BMatC= 6.42D-12 BMatP= 1.06D-10
 IDIUse=1 WtCom= 1.00D+00 WtEn= 0.00D+00
 Coeff-Com:  0.119D-02-0.406D-02-0.440D-02 0.664D-01-0.174D+00 0.335D+00
 Coeff-Com: -0.789D+00 0.157D+01
 Coeff:      0.119D-02-0.406D-02-0.440D-02 0.664D-01-0.174D+00 0.335D+00
 Coeff:     -0.789D+00 0.157D+01
 Gap=     0.368 Goal=   None    Shift=    0.000
 RMSDP=5.74D-07 MaxDP=4.60D-06 DE=-8.92D-10 OVMax= 5.91D-06

 Cycle   9  Pass 1  IDiag  3:
 E=-0.429001546997085E-01 Delta-E=       -0.000000000055 Rises=F Damp=F
 DIIS: error= 1.10D-07 at cycle   9 NSaved=   9.
 NSaved= 9 IEnMin= 9 EnMin=-0.429001546997085E-01 IErMin= 9 ErrMin= 1.10D-07
 ErrMax= 1.10D-07  0.00D+00 EMaxC= 1.00D-01 BMatC= 3.95D-13 BMatP= 6.42D-12
 IDIUse=1 WtCom= 1.00D+00 WtEn= 0.00D+00
 Coeff-Com: -0.428D-03 0.145D-02 0.169D-02-0.242D-01 0.631D-01-0.123D+00
 Coeff-Com:  0.310D+00-0.798D+00 0.157D+01
 Coeff:     -0.428D-03 0.145D-02 0.169D-02-0.242D-01 0.631D-01-0.123D+00
 Coeff:      0.310D+00-0.798D+00 0.157D+01
 Gap=     0.368 Goal=   None    Shift=    0.000
 RMSDP=1.47D-07 MaxDP=1.13D-06 DE=-5.54D-11 OVMax= 1.45D-06

 Cycle  10  Pass 1  IDiag  3:
 E=-0.429001547030481E-01 Delta-E=       -0.000000000003 Rises=F Damp=F
 DIIS: error= 2.31D-08 at cycle  10 NSaved=  10.
 NSaved=10 IEnMin=10 EnMin=-0.429001547030481E-01 IErMin=10 ErrMin= 2.31D-08
 ErrMax= 2.31D-08  0.00D+00 EMaxC= 1.00D-01 BMatC= 2.15D-14 BMatP= 3.95D-13
 IDIUse=1 WtCom= 1.00D+00 WtEn= 0.00D+00
 Coeff-Com:  0.986D-04-0.325D-03-0.441D-03 0.570D-02-0.147D-01 0.286D-01
 Coeff-Com: -0.765D-01 0.226D+00-0.622D+00 0.145D+01
 Coeff:      0.986D-04-0.325D-03-0.441D-03 0.570D-02-0.147D-01 0.286D-01
 Coeff:     -0.765D-01 0.226D+00-0.622D+00 0.145D+01
 Gap=     0.368 Goal=   None    Shift=    0.000
 RMSDP=3.06D-08 MaxDP=2.15D-07 DE=-3.34D-12 OVMax= 2.55D-07

 Cycle  11  Pass 1  IDiag  3:
 E=-0.429001547031618E-01 Delta-E=        0.000000000000 Rises=F Damp=F
 DIIS: error= 5.46D-09 at cycle  11 NSaved=  11.
 NSaved=11 IEnMin=11 EnMin=-0.429001547031618E-01 IErMin=11 ErrMin= 5.46D-09
 ErrMax= 5.46D-09  0.00D+00 EMaxC= 1.00D-01 BMatC= 1.40D-15 BMatP= 2.15D-14
 IDIUse=1 WtCom= 1.00D+00 WtEn= 0.00D+00
 Coeff-Com: -0.110D-04 0.329D-04 0.684D-04-0.681D-03 0.168D-02-0.331D-02
 Coeff-Com:  0.105D-01-0.392D-01 0.145D+00-0.583D+00 0.147D+01
 Coeff:     -0.110D-04 0.329D-04 0.684D-04-0.681D-03 0.168D-02-0.331D-02
 Coeff:      0.105D-01-0.392D-01 0.145D+00-0.583D+00 0.147D+01
 Gap=     0.368 Goal=   None    Shift=    0.000
 RMSDP=7.63D-09 MaxDP=4.14D-08 DE=-1.14D-13 OVMax= 5.35D-08

 Cycle  12  Pass 2  IDiag  1:
 SCF Done:  E(RAM1) = -0.429001547032E-01 A.U. after   12 cycles
            NFock= 11  Conv=0.76D-08     -V/T= 0.9974
 KE=-1.643174105969D+01 PE=-1.691602760775D+02 EE= 8.325620926555D+01
 Leave Link  502 at Sat Mar 12 19:22:14 2016, MaxMem=    33554432 cpu:         0.0
 (Enter /opt/g09/g09/l701.exe)
 Compute integral first derivatives.
 ... and contract with generalized density number  0.
 Leave Link  701 at Sat Mar 12 19:22:14 2016, MaxMem=    33554432 cpu:         0.0
 (Enter /opt/g09/g09/l702.exe)
 L702 exits ... SP integral derivatives will be done elsewhere.
 Leave Link  702 at Sat Mar 12 19:22:14 2016, MaxMem=    33554432 cpu:         0.0
 (Enter /opt/g09/g09/l703.exe)
 Compute integral first derivatives, UseDBF=F ICtDFT=           0.
 Integral derivatives from FoFJK, PRISM(SPDF).
 Calling FoFJK, ICntrl=      2127 FMM=F ISym2X=0 I1Cent= 0 IOpClX= 0 NMat=1 NMatS=1 NMatT=0.
 FoFJK:  IHMeth= 8 ICntrl=    2127 DoSepK=F KAlg= 0 I1Cent=   0 FoldK=F
 IRaf=         0 NMat=   1 IRICut=       1 DoRegI=T DoRafI=F ISym2E= 0.
 FoFCou: FMM=F IPFlag=           0 FMFlag=      100000 FMFlg1=         800
         NFxFlg=           0 DoJE=F BraDBF=F KetDBF=F FulRan=T
         wScrn=  0.000000 ICntrl=    2127 IOpCl=  0 I1Cent=           0 NGrid=           0
         NMat0=    1 NMatS0=      1 NMatT0=    0 NMatD0=    1 NMtDS0=    0 NMtDT0=    0
 Symmetry not used in FoFCou.
 Leave Link  703 at Sat Mar 12 19:22:14 2016, MaxMem=    33554432 cpu:         0.0
 (Enter /opt/g09/g09/l716.exe)
 Dipole        = 5.61385581D-02 1.90291402D-01-9.88472883D-04
 ***** Axes restored to original set *****
 -------------------------------------------------------------------
 Center     Atomic                   Forces (Hartrees/Bohr)
 Number     Number              X              Y              Z
 -------------------------------------------------------------------
      1        6          -0.025034152    0.017762316   -0.001060045
      2        6           0.005381657    0.012290180    0.001937383
      3        8           0.033260564   -0.000450850    0.000389962
      4        6           0.008364776   -0.015645699   -0.001258381
      5        6          -0.018642066   -0.014485801   -0.000228248
      6        1          -0.003460339    0.000964761    0.000748179
      7        1           0.001916485   -0.004275250    0.000251638
      8        1           0.000320392    0.002740394   -0.000573852
      9        1          -0.002107318    0.001099948   -0.000206636
 -------------------------------------------------------------------
 Cartesian Forces:  Max     0.033260564 RMS     0.010812525
 Leave Link  716 at Sat Mar 12 19:22:14 2016, MaxMem=    33554432 cpu:         0.0
 (Enter /opt/g09/g09/l103.exe)

 GradGradGradGradGradGradGradGradGradGradGradGradGradGradGradGradGradGrad
 Berny optimization.
 Using GEDIIS/GDIIS optimizer.
 FormGI is forming the generalized inverse of G from B-inverse, IUseBI=4.
 Internal  Forces:  Max     0.026046669 RMS     0.008417533
 Search for a local minimum.
 Step number   2 out of a maximum of   48
 All quantities printed in internal units (Hartrees-Bohrs-Radians)
 RMS Force = .84175D-02 SwitMx=.10000D-02 MixMth= 1
 Mixed Optimization -- RFO/linear search
 Update second derivatives using D2CorX and points    1    2
 DE= -6.73D-03 DEPred=-1.26D-02 R= 5.32D-01
 TightC=F SS=  1.41D+00  RLast= 2.39D-01 DXNew= 5.0454D-01 7.1659D-01
 Trust test= 5.32D-01 RLast= 2.39D-01 DXMaxT set to 5.05D-01
 ITU=  1  0
 Use linear search instead of GDIIS.
     Eigenvalues ---    0.01880   0.02156   0.02367   0.02596   0.02717
     Eigenvalues ---    0.02959   0.15875   0.15998   0.16000   0.16071
     Eigenvalues ---    0.22098   0.23169   0.33126   0.34860   0.35413
     Eigenvalues ---    0.35748   0.37459   0.47057   0.50968   0.54498
     Eigenvalues ---    0.84955
 RFO step:  Lambda=-1.00970881D-03 EMin= 1.88020139D-02
 Quartic linear search produced a step of -0.30116.
 Iteration  1 RMS(Cart)=  0.01665959 RMS(Int)=  0.00019085
 Iteration  2 RMS(Cart)=  0.00016455 RMS(Int)=  0.00010422
 Iteration  3 RMS(Cart)=  0.00000002 RMS(Int)=  0.00010422
 ITry= 1 IFail=0 DXMaxC= 4.45D-02 DCOld= 1.00D+10 DXMaxT= 5.05D-01 DXLimC= 3.00D+00 Rises=F
 Variable       Old X    -DE/DX   Delta X   Delta X   Delta X     New X
                                 (Linear)    (Quad)   (Total)
    R1        2.62159  -0.02286  -0.02551   0.00014  -0.02530   2.59628
    R2        2.75728  -0.01901   0.00075  -0.03624  -0.03547   2.72181
    R3        2.05086  -0.00235   0.00882  -0.01421  -0.00539   2.04547
    R4        2.64767  -0.02273  -0.02317  -0.00480  -0.02795   2.61971
    R5        2.05465  -0.00257  -0.00286  -0.00198  -0.00484   2.04981
    R6        2.64797  -0.02074  -0.01592  -0.01186  -0.02783   2.62014
    R7        2.62403  -0.02605  -0.04094   0.01589  -0.02511   2.59892
    R8        2.05903  -0.00468  -0.01129   0.00329  -0.00800   2.05104
    R9        2.05217  -0.00233  -0.00061  -0.00394  -0.00455   2.04762
    A1        1.84449   0.00377   0.00575   0.00795   0.01378   1.85827
    A2        2.24091  -0.00224  -0.00949   0.00075  -0.00876   2.23214
    A3        2.19778  -0.00153   0.00357  -0.00869  -0.00515   2.19264
    A4        1.94440  -0.00629  -0.00944  -0.00924  -0.01864   1.92576
    A5        2.33712   0.00420   0.00062   0.01322   0.01378   2.35089
    A6        2.00147   0.00210   0.00876  -0.00367   0.00503   2.00650
    A7        1.84239   0.00578   0.00648   0.00878   0.01519   1.85758
    A8        1.93235  -0.00236   0.00415  -0.01234  -0.00834   1.92401
    A9        2.00065   0.00085   0.00425  -0.00127   0.00299   2.00365
   A10        2.35012   0.00151  -0.00844   0.01376   0.00534   2.35546
   A11        1.86109  -0.00089  -0.00737   0.00505  -0.00227   1.85882
   A12        2.16582   0.00326   0.00547   0.00766   0.01325   2.17906
   A13        2.25619  -0.00236   0.00127  -0.01271  -0.01132   2.24488
    D1       -0.00855   0.00042   0.00836   0.01417   0.02259   0.01404
    D2       -3.12700  -0.00013   0.01078  -0.00351   0.00741  -3.11959
    D3        3.13474   0.00018  -0.00279   0.00689   0.00396   3.13870
    D4        0.01628  -0.00037  -0.00037  -0.01078  -0.01121   0.00507
    D5        0.01019  -0.00047  -0.01634  -0.01684  -0.03324  -0.02306
    D6       -3.11846  -0.00048  -0.00070  -0.01637  -0.01699  -3.13546
    D7       -3.13304  -0.00024  -0.00520  -0.00979  -0.01516   3.13498
    D8        0.02149  -0.00025   0.01043  -0.00932   0.00109   0.02258
    D9        0.00355  -0.00017   0.00252  -0.00597  -0.00318   0.00038
   D10        3.12680   0.00032   0.00052   0.00831   0.00892   3.13572
   D11        0.00330  -0.00017  -0.01385  -0.00550  -0.01896  -0.01566
   D12        3.13515   0.00026  -0.00538   0.00654   0.00120   3.13635
   D13       -0.00844   0.00043   0.01848   0.01398   0.03249   0.02405
   D14        3.11931   0.00050   0.00194   0.01370   0.01567   3.13498
   D15       -3.13758  -0.00009   0.00789  -0.00123   0.00667  -3.13090
   D16       -0.00983  -0.00002  -0.00865  -0.00151  -0.01015  -0.01997
         Item               Value     Threshold  Converged?
 Maximum Force            0.026047     0.000450     NO 
 RMS     Force            0.008418     0.000300     NO 
 Maximum Displacement     0.044484     0.001800     NO 
 RMS     Displacement     0.016719     0.001200     NO 
 Predicted change in Energy=-1.721298D-03
 Lowest energy point so far.  Saving SCF results.
 GradGradGradGradGradGradGradGradGradGradGradGradGradGradGradGradGradGrad

 Leave Link  103 at Sat Mar 12 19:22:14 2016, MaxMem=    33554432 cpu:         0.0
 (Enter /opt/g09/g09/l202.exe)
                          Input orientation:                          
 ---------------------------------------------------------------------
 Center     Atomic      Atomic             Coordinates (Angstroms)
 Number     Number       Type             X           Y           Z
 ---------------------------------------------------------------------
      1          6           0        0.961309   -0.724158   -0.004802
      2          6           0       -0.357751   -1.108425   -0.003891
      3          8           0       -1.183906    0.004794   -0.008210
      4          6           0       -0.349702    1.112278   -0.012409
      5          6           0        0.967103    0.716083    0.009391
      6          1           0        1.858753    1.331747    0.006833
      7          1           0       -0.862763    2.068678   -0.021275
      8          1           0       -0.874582   -2.062050    0.005509
      9          1           0        1.838490   -1.358315    0.000280
 ---------------------------------------------------------------------
                    Distance matrix (angstroms):
                    1          2          3          4          5
     1  C    0.000000
     2  C    1.373893   0.000000
     3  O    2.265685   1.386293   0.000000
     4  C    2.256392   2.220734   1.386518   0.000000
     5  C    1.440322   2.254827   2.265631   1.375290   0.000000
     6  H    2.243276   3.296581   3.319458   2.219416   1.083553
     7  H    3.335782   3.217036   2.088760   1.085362   2.275711
     8  H    2.271686   1.084713   2.089907   3.217479   3.333143
     9  H    1.082417   2.210415   3.315571   3.300329   2.250005
                    6          7          8          9
     6  H    0.000000
     7  H    2.819663   0.000000
     8  H    4.357634   4.130831   0.000000
     9  H    2.690146   4.363658   2.802860   0.000000
 Stoichiometry    C4H4O
 Framework group  C1[X(C4H4O)]
 Deg. of freedom    21
 Full point group                 C1      NOp   1
 RotChk:  IX=0 Diff= 3.48D-01
 Largest Abelian subgroup         C1      NOp   1
 Largest concise Abelian subgroup C1      NOp   1
                         Standard orientation:                         
 ---------------------------------------------------------------------
 Center     Atomic      Atomic             Coordinates (Angstroms)
 Number     Number       Type             X           Y           Z
 ---------------------------------------------------------------------
      1          6           0        0.749144    0.947058   -0.006663
      2          6           0        1.098570   -0.381637    0.000508
      3          8           0       -0.036007   -1.178217    0.001848
      4          6           0       -1.121162   -0.315185   -0.005200
      5          6           0       -0.690424    0.990830    0.009350
      6          1           0       -1.282416    1.898350    0.003017
      7          1           0       -2.090743   -0.802934   -0.010211
      8          1           0        2.038277   -0.923334    0.011329
      9          1           0        1.406170    1.807258   -0.006886
 ---------------------------------------------------------------------
 Rotational constants (GHZ):      9.3102657      9.0131479      4.5798346
 Leave Link  202 at Sat Mar 12 19:22:14 2016, MaxMem=    33554432 cpu:         0.0
 (Enter /opt/g09/g09/l301.exe)

 Semi-emprical parameters in input format:
 Method=8 CoreType=1 PeptideFC=0.0114505045 RIJScale=0.5291772086
 ****
 H       
 PQN=1 NValence=1 F0ss=0.4721553327 ZetaOverlap=1.1880780000 U=-0.4188110042
 Beta=-0.2268825074 CoreKO=1.0589197790 KON=0,0,0,1.0589197790 KON=1,0,1,1.0148831252
 KON=0,1,1,1.0904525133 KON=2,1,1,1.0589197790 EISol=-0.4188110042 EHeat=0.0830298228
 Alpha=1.5252601686
 GCore=0.0083435813,1.4001425905,2.2676713595
 GCore=0.0003534810,1.4001425905,3.5179486326
 GCore=-0.0012733648,0.5600570362,3.8993913729
 ****
 C       
 PQN=2,2 NValence=4 F0ss=0.4494442496 F0sp=0.4215147623 F0pp=0.3768030831 F2pp=0.1898715146
 G1sp=0.2679025821
 ZetaOverlap=1.8086650000,1.6851160000
 U=-1.9120180828,-1.4557965594
 Beta=-0.5775444233,-0.2836784428 DDN=0,1,0.8236736000 DDN=1,1,0.7268015000
 CoreKO=1.1124284736 KON=0,0,0,1.1124284736 KON=1,0,1,0.7843091373 KON=0,1,1,1.1124284736
 KON=2,1,1,0.7657521931 EISol=-4.4398989268 EHeat=0.2723305520 Alpha=1.4014062429
 DipHyp=1.6472524267
 GCore=0.0008252163,1.3824781042,3.0235618126
 GCore=0.0031892455,1.4001425905,3.4088448461
 GCore=-0.0013931594,1.3450400410,3.8739385724
 GCore=-0.0000875022,1.4001425905,5.0077742521
 ****
 O       
 PQN=2,2 NValence=6 F0ss=0.5666745976 F0sp=0.5321302318 F0pp=0.4958708974 F2pp=0.2492278472
 G1sp=0.4343770262
 ZetaOverlap=3.1080320000,2.5240390000
 U=-3.5951865036,-2.8760896690
 Beta=-1.0757546603,-1.1127426044 DDN=0,1,0.4887653308 DDN=1,1,0.5063294379
 CoreKO=0.8822957477 KON=0,0,0,0.8822957477 KON=1,0,1,0.5019543089 KON=0,1,1,0.8822957477
 KON=2,1,1,0.5515584117 EISol=-11.6164441184 EHeat=0.0949133088 Alpha=2.3050529976
 DipHyp=0.9774744234
 GCore=0.0195117322,1.4001425905,1.6023328031
 GCore=0.0056550009,1.9601996266,2.7307884326
 ****
 
 Standard basis: VSTO-6G (5D, 7F)
 Ernie: Thresh=  0.10000D-02 Tol=  0.10000D-05 Strict=F.
  NNHCO=     0 NNPyr=     0 NCTC=     0               EPep=         0.000000000
    EC=        68.164134973  ECS=         1.744751042   EG=         0.346187608
   EHC=         0.000000000  EAt=       -31.051283842  AtH=         1.516354808
 EPDDG=         0.000000000  ECC=        70.255073622 EAtT=        32.567638650
 There are    24 symmetry adapted cartesian basis functions of A   symmetry.
 There are    24 symmetry adapted basis functions of A   symmetry.
    24 basis functions,   144 primitive gaussians,    24 cartesian basis functions
    13 alpha electrons       13 beta electrons
       nuclear repulsion energy       102.8227122726 Hartrees.
 IExCor=    0 DFT=F Ex=HF Corr=None ExCW=0 ScaHFX=  1.000000
 ScaDFX=  1.000000  1.000000  1.000000  1.000000 ScalE2=  1.000000  1.000000
 IRadAn=      0 IRanWt=     -1 IRanGd=            0 ICorTp=0 IEmpDi=  4
 Integral buffers will be    131072 words long.
 Regular integral format.
 Two-electron integral symmetry is turned off.
 Leave Link  301 at Sat Mar 12 19:22:14 2016, MaxMem=    33554432 cpu:         0.0
 (Enter /opt/g09/g09/l302.exe)
 Do NDO integrals.
 NPDir=0 NMtPBC=     1 NCelOv=     1 NCel=       1 NClECP=     1 NCelD=      1
         NCelK=      1 NCelE2=     1 NClLst=     1 CellRange=     0.0.
 One-electron integrals computed using PRISM.
 NBasis=    24 RedAO= F EigKep=  0.00D+00  NBF=    24
 NBsUse=    24 1.00D-04 EigRej=  0.00D+00 NBFU=    24
 Leave Link  302 at Sat Mar 12 19:22:14 2016, MaxMem=    33554432 cpu:         0.0
 (Enter /opt/g09/g09/l303.exe)
 DipDrv:  MaxL=1.
 Leave Link  303 at Sat Mar 12 19:22:14 2016, MaxMem=    33554432 cpu:         0.0
 (Enter /opt/g09/g09/l401.exe)
 Initial guess from the checkpoint file:  "/opt/g09/scratch/Gau-30966.chk"
 B after Tr=     0.000000    0.000000    0.000000
         Rot=    0.992430    0.000001   -0.000006   -0.122814 Ang=  14.11 deg.
 Guess basis will be translated and rotated to current coordinates.
 JPrj=0 DoOrth=T DoCkMO=T.
 Leave Link  401 at Sat Mar 12 19:22:14 2016, MaxMem=    33554432 cpu:         0.0
 (Enter /opt/g09/g09/l502.exe)
 Closed shell SCF:
 Using DIIS extrapolation, IDIIS=  1040.
 Overlap will be assumed to be unity.
 Two-electron integral symmetry not used.
 Keep J ints in memory in canonical form, NReq=888082.
 IVT=       79475 IEndB=       79475 NGot=    33554432 MDV=    33473473
 LenX=    33473473 LenY=    33472456
 Requested convergence on RMS density matrix=1.00D-08 within 128 cycles.
 Requested convergence on MAX density matrix=1.00D-06.
 Requested convergence on             energy=1.00D-06.
 No special actions if energy rises.
 FoFCou: FMM=F IPFlag=           0 FMFlag=           0 FMFlg1=           0
         NFxFlg=           0 DoJE=F BraDBF=F KetDBF=F FulRan=T
         wScrn=  0.000000 ICntrl=     600 IOpCl=  2 I1Cent=           0 NGrid=           0
         NMat0=    1 NMatS0=     54 NMatT0=    0 NMatD0=    1 NMtDS0=    0 NMtDT0=    0
 Symmetry not used in FoFCou.

 Cycle   1  Pass 1  IDiag  1:
 E=-0.440391866286802E-01
 DIIS: error= 1.90D-03 at cycle   1 NSaved=   1.
 NSaved= 1 IEnMin= 1 EnMin=-0.440391866286802E-01 IErMin= 1 ErrMin= 1.90D-03
 ErrMax= 1.90D-03  0.00D+00 EMaxC= 1.00D-01 BMatC= 2.01D-04 BMatP= 2.01D-04
 IDIUse=3 WtCom= 9.81D-01 WtEn= 1.90D-02
 Coeff-Com:  0.100D+01
 Coeff-En:   0.100D+01
 Coeff:      0.100D+01
 GapD=    2.000 DampG=2.000 DampE=1.000 DampFc=2.0000 IDamp=-1.
 RMSDP=9.63D-04 MaxDP=4.30D-03              OVMax= 0.00D+00

 Cycle   2  Pass 1  IDiag  3:
 E=-0.446216859986492E-01 Delta-E=       -0.000582499370 Rises=F Damp=F
 DIIS: error= 6.60D-04 at cycle   2 NSaved=   2.
 NSaved= 2 IEnMin= 2 EnMin=-0.446216859986492E-01 IErMin= 2 ErrMin= 6.60D-04
 ErrMax= 6.60D-04  0.00D+00 EMaxC= 1.00D-01 BMatC= 2.33D-05 BMatP= 2.01D-04
 IDIUse=3 WtCom= 9.93D-01 WtEn= 6.60D-03
 Coeff-Com: -0.386D+00 0.139D+01
 Coeff-En:   0.000D+00 0.100D+01
 Coeff:     -0.383D+00 0.138D+01
 Gap=     0.373 Goal=   None    Shift=    0.000
 RMSDP=5.77D-04 MaxDP=2.93D-03 DE=-5.82D-04 OVMax= 3.17D-03

 Cycle   3  Pass 1  IDiag  3:
 E=-0.447347681758998E-01 Delta-E=       -0.000113082177 Rises=F Damp=F
 DIIS: error= 1.90D-04 at cycle   3 NSaved=   3.
 NSaved= 3 IEnMin= 3 EnMin=-0.447347681758998E-01 IErMin= 3 ErrMin= 1.90D-04
 ErrMax= 1.90D-04  0.00D+00 EMaxC= 1.00D-01 BMatC= 1.66D-06 BMatP= 2.33D-05
 IDIUse=3 WtCom= 9.98D-01 WtEn= 1.90D-03
 Coeff-Com:  0.143D+00-0.678D+00 0.153D+01
 Coeff-En:   0.000D+00 0.000D+00 0.100D+01
 Coeff:      0.143D+00-0.677D+00 0.153D+01
 Gap=     0.373 Goal=   None    Shift=    0.000
 RMSDP=2.34D-04 MaxDP=1.16D-03 DE=-1.13D-04 OVMax= 1.66D-03

 Cycle   4  Pass 1  IDiag  3:
 E=-0.447468403900615E-01 Delta-E=       -0.000012072214 Rises=F Damp=F
 DIIS: error= 5.42D-05 at cycle   4 NSaved=   4.
 NSaved= 4 IEnMin= 4 EnMin=-0.447468403900615E-01 IErMin= 4 ErrMin= 5.42D-05
 ErrMax= 5.42D-05  0.00D+00 EMaxC= 1.00D-01 BMatC= 9.83D-08 BMatP= 1.66D-06
 IDIUse=1 WtCom= 1.00D+00 WtEn= 0.00D+00
 Coeff-Com: -0.171D-02 0.442D-01-0.334D+00 0.129D+01
 Coeff:     -0.171D-02 0.442D-01-0.334D+00 0.129D+01
 Gap=     0.373 Goal=   None    Shift=    0.000
 RMSDP=6.17D-05 MaxDP=4.07D-04 DE=-1.21D-05 OVMax= 5.22D-04

 Cycle   5  Pass 1  IDiag  3:
 E=-0.447476335543087E-01 Delta-E=       -0.000000793164 Rises=F Damp=F
 DIIS: error= 2.14D-05 at cycle   5 NSaved=   5.
 NSaved= 5 IEnMin= 5 EnMin=-0.447476335543087E-01 IErMin= 5 ErrMin= 2.14D-05
 ErrMax= 2.14D-05  0.00D+00 EMaxC= 1.00D-01 BMatC= 1.02D-08 BMatP= 9.83D-08
 IDIUse=1 WtCom= 1.00D+00 WtEn= 0.00D+00
 Coeff-Com: -0.993D-02 0.302D-01 0.487D-01-0.667D+00 0.160D+01
 Coeff:     -0.993D-02 0.302D-01 0.487D-01-0.667D+00 0.160D+01
 Gap=     0.373 Goal=   None    Shift=    0.000
 RMSDP=2.41D-05 MaxDP=1.96D-04 DE=-7.93D-07 OVMax= 2.58D-04

 Cycle   6  Pass 1  IDiag  3:
 E=-0.447477271006704E-01 Delta-E=       -0.000000093546 Rises=F Damp=F
 DIIS: error= 5.48D-06 at cycle   6 NSaved=   6.
 NSaved= 6 IEnMin= 6 EnMin=-0.447477271006704E-01 IErMin= 6 ErrMin= 5.48D-06
 ErrMax= 5.48D-06  0.00D+00 EMaxC= 1.00D-01 BMatC= 6.24D-10 BMatP= 1.02D-08
 IDIUse=1 WtCom= 1.00D+00 WtEn= 0.00D+00
 Coeff-Com:  0.681D-02-0.237D-01-0.487D-02 0.329D+00-0.984D+00 0.168D+01
 Coeff:      0.681D-02-0.237D-01-0.487D-02 0.329D+00-0.984D+00 0.168D+01
 Gap=     0.372 Goal=   None    Shift=    0.000
 RMSDP=6.28D-06 MaxDP=5.48D-05 DE=-9.35D-08 OVMax= 6.90D-05

 Cycle   7  Pass 1  IDiag  3:
 E=-0.447477328592782E-01 Delta-E=       -0.000000005759 Rises=F Damp=F
 DIIS: error= 9.80D-07 at cycle   7 NSaved=   7.
 NSaved= 7 IEnMin= 7 EnMin=-0.447477328592782E-01 IErMin= 7 ErrMin= 9.80D-07
 ErrMax= 9.80D-07  0.00D+00 EMaxC= 1.00D-01 BMatC= 2.74D-11 BMatP= 6.24D-10
 IDIUse=1 WtCom= 1.00D+00 WtEn= 0.00D+00
 Coeff-Com: -0.275D-02 0.967D-02 0.825D-03-0.127D+00 0.394D+00-0.801D+00
 Coeff-Com:  0.153D+01
 Coeff:     -0.275D-02 0.967D-02 0.825D-03-0.127D+00 0.394D+00-0.801D+00
 Coeff:      0.153D+01
 Gap=     0.372 Goal=   None    Shift=    0.000
 RMSDP=1.18D-06 MaxDP=9.80D-06 DE=-5.76D-09 OVMax= 1.26D-05

 Cycle   8  Pass 1  IDiag  3:
 E=-0.447477330848756E-01 Delta-E=       -0.000000000226 Rises=F Damp=F
 DIIS: error= 1.81D-07 at cycle   8 NSaved=   8.
 NSaved= 8 IEnMin= 8 EnMin=-0.447477330848756E-01 IErMin= 8 ErrMin= 1.81D-07
 ErrMax= 1.81D-07  0.00D+00 EMaxC= 1.00D-01 BMatC= 1.52D-12 BMatP= 2.74D-11
 IDIUse=1 WtCom= 1.00D+00 WtEn= 0.00D+00
 Coeff-Com:  0.112D-02-0.396D-02-0.936D-04 0.502D-01-0.158D+00 0.332D+00
 Coeff-Com: -0.776D+00 0.155D+01
 Coeff:      0.112D-02-0.396D-02-0.936D-04 0.502D-01-0.158D+00 0.332D+00
 Coeff:     -0.776D+00 0.155D+01
 Gap=     0.372 Goal=   None    Shift=    0.000
 RMSDP=2.60D-07 MaxDP=1.86D-06 DE=-2.26D-10 OVMax= 2.45D-06

 Cycle   9  Pass 1  IDiag  3:
 E=-0.447477330966137E-01 Delta-E=       -0.000000000012 Rises=F Damp=F
 DIIS: error= 4.50D-08 at cycle   9 NSaved=   9.
 NSaved= 9 IEnMin= 9 EnMin=-0.447477330966137E-01 IErMin= 9 ErrMin= 4.50D-08
 ErrMax= 4.50D-08  0.00D+00 EMaxC= 1.00D-01 BMatC= 8.58D-14 BMatP= 1.52D-12
 IDIUse=1 WtCom= 1.00D+00 WtEn= 0.00D+00
 Coeff-Com: -0.471D-03 0.166D-02 0.666D-04-0.213D-01 0.670D-01-0.142D+00
 Coeff-Com:  0.341D+00-0.832D+00 0.159D+01
 Coeff:     -0.471D-03 0.166D-02 0.666D-04-0.213D-01 0.670D-01-0.142D+00
 Coeff:      0.341D+00-0.832D+00 0.159D+01
 Gap=     0.372 Goal=   None    Shift=    0.000
 RMSDP=6.05D-08 MaxDP=3.25D-07 DE=-1.17D-11 OVMax= 4.46D-07

 Cycle  10  Pass 1  IDiag  3:
 E=-0.447477330974095E-01 Delta-E=       -0.000000000001 Rises=F Damp=F
 DIIS: error= 8.81D-09 at cycle  10 NSaved=  10.
 NSaved=10 IEnMin=10 EnMin=-0.447477330974095E-01 IErMin=10 ErrMin= 8.81D-09
 ErrMax= 8.81D-09  0.00D+00 EMaxC= 1.00D-01 BMatC= 3.99D-15 BMatP= 8.58D-14
 IDIUse=1 WtCom= 1.00D+00 WtEn= 0.00D+00
 Coeff-Com:  0.182D-03-0.646D-03-0.133D-04 0.819D-02-0.258D-01 0.548D-01
 Coeff-Com: -0.133D+00 0.335D+00-0.775D+00 0.154D+01
 Coeff:      0.182D-03-0.646D-03-0.133D-04 0.819D-02-0.258D-01 0.548D-01
 Coeff:     -0.133D+00 0.335D+00-0.775D+00 0.154D+01
 Gap=     0.372 Goal=   None    Shift=    0.000
 RMSDP=1.23D-08 MaxDP=5.84D-08 DE=-7.96D-13 OVMax= 8.67D-08

 Cycle  11  Pass 1  IDiag  3:
 E=-0.447477330974948E-01 Delta-E=        0.000000000000 Rises=F Damp=F
 DIIS: error= 1.89D-09 at cycle  11 NSaved=  11.
 NSaved=11 IEnMin=11 EnMin=-0.447477330974948E-01 IErMin=11 ErrMin= 1.89D-09
 ErrMax= 1.89D-09  0.00D+00 EMaxC= 1.00D-01 BMatC= 1.92D-16 BMatP= 3.99D-15
 IDIUse=1 WtCom= 1.00D+00 WtEn= 0.00D+00
 Coeff-Com: -0.427D-04 0.152D-03-0.243D-06-0.191D-02 0.605D-02-0.130D-01
 Coeff-Com:  0.316D-01-0.813D-01 0.206D+00-0.589D+00 0.144D+01
 Coeff:     -0.427D-04 0.152D-03-0.243D-06-0.191D-02 0.605D-02-0.130D-01
 Coeff:      0.316D-01-0.813D-01 0.206D+00-0.589D+00 0.144D+01
 Gap=     0.372 Goal=   None    Shift=    0.000
 RMSDP=2.61D-09 MaxDP=1.41D-08 DE=-8.53D-14 OVMax= 2.43D-08

 Cycle  12  Pass 2  IDiag  1:
 SCF Done:  E(RAM1) = -0.447477330975E-01 A.U. after   12 cycles
            NFock= 11  Conv=0.26D-08     -V/T= 0.9973
 KE=-1.649794243466D+01 PE=-1.700242691127D+02 EE= 8.365475154167D+01
 Leave Link  502 at Sat Mar 12 19:22:14 2016, MaxMem=    33554432 cpu:         0.0
 (Enter /opt/g09/g09/l701.exe)
 Compute integral first derivatives.
 ... and contract with generalized density number  0.
 Leave Link  701 at Sat Mar 12 19:22:14 2016, MaxMem=    33554432 cpu:         0.0
 (Enter /opt/g09/g09/l702.exe)
 L702 exits ... SP integral derivatives will be done elsewhere.
 Leave Link  702 at Sat Mar 12 19:22:14 2016, MaxMem=    33554432 cpu:         0.0
 (Enter /opt/g09/g09/l703.exe)
 Compute integral first derivatives, UseDBF=F ICtDFT=           0.
 Integral derivatives from FoFJK, PRISM(SPDF).
 Calling FoFJK, ICntrl=      2127 FMM=F ISym2X=0 I1Cent= 0 IOpClX= 0 NMat=1 NMatS=1 NMatT=0.
 FoFJK:  IHMeth= 8 ICntrl=    2127 DoSepK=F KAlg= 0 I1Cent=   0 FoldK=F
 IRaf=         0 NMat=   1 IRICut=       1 DoRegI=T DoRafI=F ISym2E= 0.
 FoFCou: FMM=F IPFlag=           0 FMFlag=      100000 FMFlg1=         800
         NFxFlg=           0 DoJE=F BraDBF=F KetDBF=F FulRan=T
         wScrn=  0.000000 ICntrl=    2127 IOpCl=  0 I1Cent=           0 NGrid=           0
         NMat0=    1 NMatS0=      1 NMatT0=    0 NMatD0=    1 NMtDS0=    0 NMtDT0=    0
 Symmetry not used in FoFCou.
 Leave Link  703 at Sat Mar 12 19:22:14 2016, MaxMem=    33554432 cpu:         0.0
 (Enter /opt/g09/g09/l716.exe)
 Dipole        = 6.03647464D-03 1.63521996D-01-5.09612501D-04
 ***** Axes restored to original set *****
 -------------------------------------------------------------------
 Center     Atomic                   Forces (Hartrees/Bohr)
 Number     Number              X              Y              Z
 -------------------------------------------------------------------
      1        6          -0.000240044    0.001033792    0.002696206
      2        6          -0.001924920   -0.000610982   -0.000243048
      3        8           0.001607700    0.000020867   -0.000755286
      4        6          -0.000134134    0.000149504    0.002214442
      5        6           0.000287984   -0.000897420   -0.003873227
      6        1          -0.000355896    0.001587869    0.000564308
      7        1           0.000129685   -0.000709474    0.000043999
      8        1          -0.000487514    0.000413228   -0.000412340
      9        1           0.001117139   -0.000987385   -0.000235054
 -------------------------------------------------------------------
 Cartesian Forces:  Max     0.003873227 RMS     0.001260050
 Leave Link  716 at Sat Mar 12 19:22:14 2016, MaxMem=    33554432 cpu:         0.0
 (Enter /opt/g09/g09/l103.exe)

 GradGradGradGradGradGradGradGradGradGradGradGradGradGradGradGradGradGrad
 Berny optimization.
 Using GEDIIS/GDIIS optimizer.
 FormGI is forming the generalized inverse of G from B-inverse, IUseBI=4.
 Internal  Forces:  Max     0.001696432 RMS     0.000764969
 Search for a local minimum.
 Step number   3 out of a maximum of   48
 All quantities printed in internal units (Hartrees-Bohrs-Radians)
 RMS Force = .76497D-03 SwitMx=.10000D-02 MixMth= 2
 Mixed Optimization -- En-DIIS/RFO-DIIS
 Update second derivatives using D2CorX and points    1    2    3
 DE= -1.85D-03 DEPred=-1.72D-03 R= 1.07D+00
 TightC=F SS=  1.41D+00  RLast= 9.98D-02 DXNew= 8.4853D-01 2.9932D-01
 Trust test= 1.07D+00 RLast= 9.98D-02 DXMaxT set to 5.05D-01
 ITU=  1  1  0
 Use linear search instead of GDIIS.
     Eigenvalues ---    0.01880   0.02159   0.02413   0.02589   0.02718
     Eigenvalues ---    0.02962   0.15403   0.15997   0.15999   0.16020
     Eigenvalues ---    0.22052   0.22946   0.33710   0.35370   0.35721
     Eigenvalues ---    0.36337   0.37344   0.46642   0.50253   0.55083
     Eigenvalues ---    0.80210
 RFO step:  Lambda=-3.05506800D-04 EMin= 1.87974343D-02
 Quartic linear search produced a step of -0.02023.
 Iteration  1 RMS(Cart)=  0.01433906 RMS(Int)=  0.00024359
 Iteration  2 RMS(Cart)=  0.00021954 RMS(Int)=  0.00016135
 Iteration  3 RMS(Cart)=  0.00000001 RMS(Int)=  0.00016135
 ITry= 1 IFail=0 DXMaxC= 3.83D-02 DCOld= 1.00D+10 DXMaxT= 5.05D-01 DXLimC= 3.00D+00 Rises=F
 Variable       Old X    -DE/DX   Delta X   Delta X   Delta X     New X
                                 (Linear)    (Quad)   (Total)
    R1        2.59628   0.00159   0.00051   0.00113   0.00165   2.59793
    R2        2.72181   0.00082   0.00072  -0.00041   0.00030   2.72211
    R3        2.04547   0.00148   0.00011   0.00378   0.00389   2.04936
    R4        2.61971  -0.00115   0.00057  -0.00427  -0.00368   2.61603
    R5        2.04981  -0.00013   0.00010  -0.00074  -0.00064   2.04917
    R6        2.62014  -0.00093   0.00056  -0.00426  -0.00369   2.61645
    R7        2.59892  -0.00055   0.00051  -0.00274  -0.00225   2.59667
    R8        2.05104  -0.00069   0.00016  -0.00235  -0.00219   2.04885
    R9        2.04762   0.00061   0.00009   0.00131   0.00140   2.04902
    A1        1.85827  -0.00029  -0.00028   0.00130   0.00067   1.85894
    A2        2.23214   0.00000   0.00018  -0.00135  -0.00128   2.23086
    A3        2.19264   0.00030   0.00010   0.00060   0.00059   2.19323
    A4        1.92576  -0.00057   0.00038  -0.00317  -0.00293   1.92284
    A5        2.35089   0.00093  -0.00028   0.00590   0.00568   2.35658
    A6        2.00650  -0.00036  -0.00010  -0.00276  -0.00280   2.00371
    A7        1.85758   0.00084  -0.00031   0.00376   0.00325   1.86083
    A8        1.92401   0.00034   0.00017   0.00013   0.00004   1.92405
    A9        2.00365  -0.00039  -0.00006  -0.00149  -0.00156   2.00209
   A10        2.35546   0.00006  -0.00011   0.00162   0.00152   2.35698
   A11        1.85882  -0.00028   0.00005  -0.00065  -0.00111   1.85771
   A12        2.17906   0.00170  -0.00027   0.01129   0.01079   2.18986
   A13        2.24488  -0.00139   0.00023  -0.00937  -0.00936   2.23551
    D1        0.01404  -0.00080  -0.00046  -0.03264  -0.03314  -0.01910
    D2       -3.11959  -0.00072  -0.00015  -0.02799  -0.02809   3.13551
    D3        3.13870   0.00006  -0.00008   0.00183   0.00162   3.14031
    D4        0.00507   0.00013   0.00023   0.00648   0.00666   0.01174
    D5       -0.02306   0.00124   0.00067   0.04911   0.04982   0.02676
[...]
 IDIUse=1 WtCom= 1.00D+00 WtEn= 0.00D+00
 Coeff-Com:  0.957D-03-0.332D-02 0.482D-02 0.214D-01-0.104D+00 0.292D+00
 Coeff-Com: -0.757D+00 0.155D+01
 Coeff:      0.957D-03-0.332D-02 0.482D-02 0.214D-01-0.104D+00 0.292D+00
 Coeff:     -0.757D+00 0.155D+01
 Gap=     0.372 Goal=   None    Shift=    0.000
 RMSDP=1.39D-08 MaxDP=7.52D-08 DE=-4.26D-13 OVMax= 1.12D-07

 Cycle   9  Pass 1  IDiag  3:
 E=-0.448496794464717E-01 Delta-E=        0.000000000000 Rises=F Damp=F
 DIIS: error= 2.22D-09 at cycle   9 NSaved=   9.
 NSaved= 9 IEnMin= 9 EnMin=-0.448496794464717E-01 IErMin= 9 ErrMin= 2.22D-09
 ErrMax= 2.22D-09  0.00D+00 EMaxC= 1.00D-01 BMatC= 1.72D-16 BMatP= 4.51D-15
 IDIUse=1 WtCom= 1.00D+00 WtEn= 0.00D+00
 Coeff-Com: -0.272D-03 0.946D-03-0.138D-02-0.591D-02 0.291D-01-0.832D-01
 Coeff-Com:  0.233D+00-0.615D+00 0.144D+01
 Coeff:     -0.272D-03 0.946D-03-0.138D-02-0.591D-02 0.291D-01-0.832D-01
 Coeff:      0.233D+00-0.615D+00 0.144D+01
 Gap=     0.372 Goal=   None    Shift=    0.000
 RMSDP=2.66D-09 MaxDP=1.77D-08 DE=-2.84D-13 OVMax= 2.28D-08

 Cycle  10  Pass 2  IDiag  1:
 SCF Done:  E(RAM1) = -0.448496794465E-01 A.U. after   10 cycles
            NFock=  9  Conv=0.27D-08     -V/T= 0.9973
 KE=-1.649848028636D+01 PE=-1.700320791241D+02 EE= 8.365856816897D+01
 Leave Link  502 at Sat Mar 12 19:22:15 2016, MaxMem=    33554432 cpu:         0.0
 (Enter /opt/g09/g09/l701.exe)
 Compute integral first derivatives.
 ... and contract with generalized density number  0.
 Leave Link  701 at Sat Mar 12 19:22:15 2016, MaxMem=    33554432 cpu:         0.0
 (Enter /opt/g09/g09/l702.exe)
 L702 exits ... SP integral derivatives will be done elsewhere.
 Leave Link  702 at Sat Mar 12 19:22:15 2016, MaxMem=    33554432 cpu:         0.0
 (Enter /opt/g09/g09/l703.exe)
 Compute integral first derivatives, UseDBF=F ICtDFT=           0.
 Integral derivatives from FoFJK, PRISM(SPDF).
 Calling FoFJK, ICntrl=      2127 FMM=F ISym2X=0 I1Cent= 0 IOpClX= 0 NMat=1 NMatS=1 NMatT=0.
 FoFJK:  IHMeth= 8 ICntrl=    2127 DoSepK=F KAlg= 0 I1Cent=   0 FoldK=F
 IRaf=         0 NMat=   1 IRICut=       1 DoRegI=T DoRafI=F ISym2E= 0.
 FoFCou: FMM=F IPFlag=           0 FMFlag=      100000 FMFlg1=         800
         NFxFlg=           0 DoJE=F BraDBF=F KetDBF=F FulRan=T
         wScrn=  0.000000 ICntrl=    2127 IOpCl=  0 I1Cent=           0 NGrid=           0
         NMat0=    1 NMatS0=      1 NMatT0=    0 NMatD0=    1 NMtDS0=    0 NMtDT0=    0
 Symmetry not used in FoFCou.
 Leave Link  703 at Sat Mar 12 19:22:15 2016, MaxMem=    33554432 cpu:         0.0
 (Enter /opt/g09/g09/l716.exe)
 Dipole        = 2.12769925D-04 1.59332868D-01 2.04712459D-04
 ***** Axes restored to original set *****
 -------------------------------------------------------------------
 Center     Atomic                   Forces (Hartrees/Bohr)
 Number     Number              X              Y              Z
 -------------------------------------------------------------------
      1        6          -0.000062269    0.000002416   -0.000104177
      2        6          -0.000001155   -0.000061263    0.000159872
      3        8           0.000043654   -0.000005087   -0.000153288
      4        6          -0.000048173    0.000071299    0.000207180
      5        6           0.000065603    0.000003101   -0.000061931
      6        1          -0.000030869    0.000066564    0.000004828
      7        1           0.000033177    0.000005866   -0.000051528
      8        1           0.000010423   -0.000031429   -0.000020618
      9        1          -0.000010391   -0.000051468    0.000019662
 -------------------------------------------------------------------
 Cartesian Forces:  Max     0.000207180 RMS     0.000072474
 Leave Link  716 at Sat Mar 12 19:22:15 2016, MaxMem=    33554432 cpu:         0.0
 (Enter /opt/g09/g09/l103.exe)

 GradGradGradGradGradGradGradGradGradGradGradGradGradGradGradGradGradGrad
 Berny optimization.
 Using GEDIIS/GDIIS optimizer.
 FormGI is forming the generalized inverse of G from B-inverse, IUseBI=4.
 Internal  Forces:  Max     0.000091515 RMS     0.000039159
 Search for a local minimum.
 Step number   6 out of a maximum of   48
 All quantities printed in internal units (Hartrees-Bohrs-Radians)
 RMS Force = .39159D-04 SwitMx=.10000D-02 MixMth= 2
 Mixed Optimization -- En-DIIS/RFO-DIIS
 Swapping is turned off.
 Update second derivatives using D2CorX and points    1    2    3    4    5
                                                      6
 DE= -1.88D-06 DEPred=-2.26D-06 R= 8.31D-01
 TightC=F SS=  1.41D+00  RLast= 9.17D-03 DXNew= 8.4853D-01 2.7524D-02
 Trust test= 8.31D-01 RLast= 9.17D-03 DXMaxT set to 5.05D-01
 ITU=  1  1  0  1  1  0
     Eigenvalues ---    0.01864   0.02271   0.02476   0.02814   0.03706
     Eigenvalues ---    0.05310   0.10754   0.15708   0.16001   0.16017
     Eigenvalues ---    0.22277   0.23775   0.33789   0.35338   0.35690
     Eigenvalues ---    0.37281   0.40511   0.45981   0.49710   0.56469
     Eigenvalues ---    0.79894
 En-DIIS/RFO-DIIS IScMMF=        0 using points:     6    5    4    3
 RFO step:  Lambda=-1.86200074D-07.
 NNeg= 0 NP= 4 Switch=  2.50D-03 Rises=F DC=  2.56D-05 SmlDif=  1.00D-05
 RMS Error=  0.1402945207D-03 NUsed= 4 EDIIS=F
 DidBck=F Rises=F RFO-DIIS coefs:    0.90823    0.13581   -0.01961   -0.02442
 Iteration  1 RMS(Cart)=  0.00041399 RMS(Int)=  0.00000257
 Iteration  2 RMS(Cart)=  0.00000027 RMS(Int)=  0.00000255
 ITry= 1 IFail=0 DXMaxC= 1.14D-03 DCOld= 1.00D+10 DXMaxT= 5.05D-01 DXLimC= 3.00D+00 Rises=F
 Variable       Old X    -DE/DX   Delta X   Delta X   Delta X     New X
                                 (Linear)    (Quad)   (Total)
    R1        2.59936  -0.00002   0.00012  -0.00020  -0.00008   2.59928
    R2        2.72133   0.00009   0.00008  -0.00004   0.00004   2.72137
    R3        2.04909   0.00002   0.00015  -0.00017  -0.00003   2.04906
    R4        2.61786   0.00002  -0.00010   0.00024   0.00014   2.61800
    R5        2.04943   0.00002  -0.00002   0.00010   0.00008   2.04951
    R6        2.61788   0.00003  -0.00011   0.00025   0.00015   2.61803
    R7        2.59927   0.00000  -0.00003   0.00016   0.00012   2.59939
    R8        2.04951  -0.00001  -0.00007   0.00010   0.00003   2.04954
    R9        2.04913   0.00001   0.00006  -0.00005   0.00001   2.04914
    A1        1.85832   0.00003   0.00001   0.00009   0.00010   1.85843
    A2        2.23050  -0.00006   0.00001  -0.00044  -0.00043   2.23007
    A3        2.19436   0.00003  -0.00002   0.00035   0.00033   2.19469
    A4        1.92437  -0.00004  -0.00009   0.00003  -0.00007   1.92430
    A5        2.35692   0.00000   0.00019  -0.00025  -0.00006   2.35686
    A6        2.00189   0.00005  -0.00009   0.00023   0.00013   2.00202
    A7        1.85930   0.00005   0.00012  -0.00006   0.00006   1.85935
    A8        1.92430  -0.00003   0.00002  -0.00011  -0.00010   1.92420
    A9        2.00183   0.00005  -0.00008   0.00034   0.00026   2.00209
   A10        2.35705  -0.00002   0.00006  -0.00023  -0.00016   2.35689
   A11        1.85849  -0.00002  -0.00004   0.00005   0.00001   1.85849
   A12        2.19402   0.00008   0.00024   0.00056   0.00081   2.19482
   A13        2.23068  -0.00007  -0.00019  -0.00062  -0.00081   2.22987
    D1       -0.00099   0.00004   0.00043   0.00076   0.00119   0.00020
    D2       -3.14105  -0.00001  -0.00034  -0.00005  -0.00039  -3.14144
    D3        3.14158   0.00003   0.00049  -0.00025   0.00024  -3.14137
    D4        0.00152  -0.00003  -0.00028  -0.00107  -0.00135   0.00018
    D5        0.00007   0.00000  -0.00011  -0.00003  -0.00014  -0.00007
    D6       -3.14099  -0.00001  -0.00054   0.00021  -0.00034  -3.14133
    D7        3.14071   0.00001  -0.00017   0.00096   0.00079   3.14150
    D8       -0.00035   0.00001  -0.00060   0.00119   0.00059   0.00024
    D9        0.00152  -0.00007  -0.00058  -0.00120  -0.00178  -0.00025
   D10       -3.14126  -0.00002   0.00002  -0.00056  -0.00054   3.14138
   D11       -0.00148   0.00007   0.00051   0.00118   0.00169   0.00021
   D12       -3.14109   0.00001   0.00055  -0.00065  -0.00010  -3.14119
   D13        0.00088  -0.00004  -0.00025  -0.00072  -0.00097  -0.00009
   D14       -3.14127  -0.00003   0.00021  -0.00096  -0.00076   3.14116
   D15        3.13993   0.00004  -0.00030   0.00164   0.00134   3.14126
   D16       -0.00222   0.00004   0.00016   0.00140   0.00155  -0.00067
         Item               Value     Threshold  Converged?
 Maximum Force            0.000092     0.000450     YES
 RMS     Force            0.000039     0.000300     YES
 Maximum Displacement     0.001136     0.001800     YES
 RMS     Displacement     0.000414     0.001200     YES
 Predicted change in Energy=-3.738971D-07
 Optimization completed.
    -- Stationary point found.
                           ----------------------------
                           !   Optimized Parameters   !
                           ! (Angstroms and Degrees)  !
 --------------------------                            --------------------------
 ! Name  Definition              Value          Derivative Info.                !
 --------------------------------------------------------------------------------
 ! R1    R(1,2)                  1.3755         -DE/DX =    0.0                 !
 ! R2    R(1,5)                  1.4401         -DE/DX =    0.0001              !
 ! R3    R(1,9)                  1.0843         -DE/DX =    0.0                 !
 ! R4    R(2,3)                  1.3853         -DE/DX =    0.0                 !
 ! R5    R(2,8)                  1.0845         -DE/DX =    0.0                 !
 ! R6    R(3,4)                  1.3853         -DE/DX =    0.0                 !
 ! R7    R(4,5)                  1.3755         -DE/DX =    0.0                 !
 ! R8    R(4,7)                  1.0846         -DE/DX =    0.0                 !
 ! R9    R(5,6)                  1.0844         -DE/DX =    0.0                 !
 ! A1    A(2,1,5)              106.4741         -DE/DX =    0.0                 !
 ! A2    A(2,1,9)              127.7984         -DE/DX =   -0.0001              !
 ! A3    A(5,1,9)              125.7274         -DE/DX =    0.0                 !
 ! A4    A(1,2,3)              110.2583         -DE/DX =    0.0                 !
 ! A5    A(1,2,8)              135.0417         -DE/DX =    0.0                 !
 ! A6    A(3,2,8)              114.6999         -DE/DX =    0.0                 !
 ! A7    A(2,3,4)              106.5298         -DE/DX =    0.0                 !
 ! A8    A(3,4,5)              110.2544         -DE/DX =    0.0                 !
 ! A9    A(3,4,7)              114.6963         -DE/DX =    0.0                 !
 ! A10   A(5,4,7)              135.0492         -DE/DX =    0.0                 !
 ! A11   A(1,5,4)              106.4834         -DE/DX =    0.0                 !
 ! A12   A(1,5,6)              125.708          -DE/DX =    0.0001              !
 ! A13   A(4,5,6)              127.8087         -DE/DX =   -0.0001              !
 ! D1    D(5,1,2,3)             -0.0569         -DE/DX =    0.0                 !
 ! D2    D(5,1,2,8)           -179.9688         -DE/DX =    0.0                 !
 ! D3    D(9,1,2,3)           -180.0008         -DE/DX =    0.0                 !
 ! D4    D(9,1,2,8)              0.0873         -DE/DX =    0.0                 !
 ! D5    D(2,1,5,4)              0.004          -DE/DX =    0.0                 !
 ! D6    D(2,1,5,6)           -179.9653         -DE/DX =    0.0                 !
 ! D7    D(9,1,5,4)            179.9494         -DE/DX =    0.0                 !
 ! D8    D(9,1,5,6)             -0.0199         -DE/DX =    0.0                 !
 ! D9    D(1,2,3,4)              0.0873         -DE/DX =   -0.0001              !
 ! D10   D(8,2,3,4)            180.0188         -DE/DX =    0.0                 !
 ! D11   D(2,3,4,5)             -0.0847         -DE/DX =    0.0001              !
 ! D12   D(2,3,4,7)           -179.9713         -DE/DX =    0.0                 !
 ! D13   D(3,4,5,1)              0.0503         -DE/DX =    0.0                 !
 ! D14   D(3,4,5,6)            180.0188         -DE/DX =    0.0                 !
 ! D15   D(7,4,5,1)            179.9045         -DE/DX =    0.0                 !
 ! D16   D(7,4,5,6)             -0.1271         -DE/DX =    0.0                 !
 --------------------------------------------------------------------------------
 Lowest energy point so far.  Saving SCF results.
 GradGradGradGradGradGradGradGradGradGradGradGradGradGradGradGradGradGrad

 Largest change from initial coordinates is atom    6       0.355 Angstoms.
 Leave Link  103 at Sat Mar 12 19:22:15 2016, MaxMem=    33554432 cpu:         0.0
 (Enter /opt/g09/g09/l202.exe)
                          Input orientation:                          
 ---------------------------------------------------------------------
 Center     Atomic      Atomic             Coordinates (Angstroms)
 Number     Number       Type             X           Y           Z
 ---------------------------------------------------------------------
      1          6           0        0.962890   -0.725735    0.002716
      2          6           0       -0.357986   -1.109552   -0.002937
      3          8           0       -1.181219    0.004601   -0.009382
      4          6           0       -0.347320    1.110825   -0.009703
      5          6           0        0.969737    0.714308   -0.001732
      6          1           0        1.853223    1.343010    0.000356
      7          1           0       -0.861385    2.065800   -0.014027
      8          1           0       -0.881113   -2.059552   -0.002274
      9          1           0        1.840124   -1.363072    0.008408
 ---------------------------------------------------------------------
                    Distance matrix (angstroms):
                    1          2          3          4          5
     1  C    0.000000
     2  C    1.375522   0.000000
     3  O    2.265113   1.385312   0.000000
     4  C    2.256049   2.220412   1.385322   0.000000
     5  C    1.440066   2.255951   2.265028   1.375474   0.000000
     6  H    2.252200   3.302199   3.316515   2.212782   1.084352
     7  H    3.334805   3.215025   2.085870   1.084554   2.275893
     8  H    2.275838   1.084510   2.085867   3.215008   3.334658
     9  H    1.084330   2.212712   3.316528   3.302334   2.252373
                    6          7          8          9
     6  H    0.000000
     7  H    2.809222   0.000000
     8  H    4.365092   4.125415   0.000000
     9  H    2.706126   4.365297   2.808973   0.000000
 Stoichiometry    C4H4O
 Framework group  C1[X(C4H4O)]
 Deg. of freedom    21
 Full point group                 C1      NOp   1
 RotChk:  IX=0 Diff= 4.08D-15
 Largest Abelian subgroup         C1      NOp   1
 Largest concise Abelian subgroup C1      NOp   1
                         Standard orientation:                         
 ---------------------------------------------------------------------
 Center     Atomic      Atomic             Coordinates (Angstroms)
 Number     Number       Type             X           Y           Z
 ---------------------------------------------------------------------
      1          6           0        0.721228    0.969243    0.000248
      2          6           0        1.109760   -0.350265   -0.000391
      3          8           0       -0.001448   -1.177493    0.000374
      4          6           0       -1.110651   -0.347562   -0.000504
      5          6           0       -0.718837    0.970926    0.000115
      6          1           0       -1.350694    1.852161   -0.000026
      7          1           0       -2.063785   -0.865049    0.000456
      8          1           0        2.061628   -0.869986   -0.000151
      9          1           0        1.355430    1.848766   -0.000082
 ---------------------------------------------------------------------
 Rotational constants (GHZ):      9.3087994      9.0169609      4.5802789
 Leave Link  202 at Sat Mar 12 19:22:15 2016, MaxMem=    33554432 cpu:         0.0
 (Enter /opt/g09/g09/l601.exe)
 Copying SCF densities to generalized density rwf, IOpCl= 0 IROHF=0.

 **********************************************************************

            Population analysis using the SCF density.

 **********************************************************************

 Orbital symmetries:
       Occupied  (A) (A) (A) (A) (A) (A) (A) (A) (A) (A) (A) (A)
                 (A)
       Virtual   (A) (A) (A) (A) (A) (A) (A) (A) (A) (A) (A)
 The electronic state is 1-A.
 Alpha  occ. eigenvalues --   -1.54305  -1.22938  -1.09362  -0.82275  -0.81809
 Alpha  occ. eigenvalues --   -0.68271  -0.59623  -0.56623  -0.51217  -0.50797
 Alpha  occ. eigenvalues --   -0.49862  -0.39230  -0.34360
 Alpha virt. eigenvalues --    0.02874   0.06306   0.09888   0.14034   0.14844
 Alpha virt. eigenvalues --    0.15239   0.18059   0.18183   0.19153   0.20984
 Alpha virt. eigenvalues --    0.22284
          Condensed to atoms (all electrons):
               1          2          3          4          5          6
     1  C    4.201645   0.000000   0.000000   0.000000   0.000000   0.000000
     2  C    0.000000   4.106735   0.000000   0.000000   0.000000   0.000000
     3  O    0.000000   0.000000   6.090043   0.000000   0.000000   0.000000
     4  C    0.000000   0.000000   0.000000   4.106722   0.000000   0.000000
     5  C    0.000000   0.000000   0.000000   0.000000   4.201634   0.000000
     6  H    0.000000   0.000000   0.000000   0.000000   0.000000   0.837917
     7  H    0.000000   0.000000   0.000000   0.000000   0.000000   0.000000
     8  H    0.000000   0.000000   0.000000   0.000000   0.000000   0.000000
     9  H    0.000000   0.000000   0.000000   0.000000   0.000000   0.000000
               7          8          9
     1  C    0.000000   0.000000   0.000000
     2  C    0.000000   0.000000   0.000000
     3  O    0.000000   0.000000   0.000000
     4  C    0.000000   0.000000   0.000000
     5  C    0.000000   0.000000   0.000000
     6  H    0.000000   0.000000   0.000000
     7  H    0.808693   0.000000   0.000000
     8  H    0.000000   0.808710   0.000000
     9  H    0.000000   0.000000   0.837902
 Mulliken charges:
               1
     1  C   -0.201645
     2  C   -0.106735
     3  O   -0.090043
     4  C   -0.106722
     5  C   -0.201634
     6  H    0.162083
     7  H    0.191307
     8  H    0.191290
     9  H    0.162098
 Sum of Mulliken charges =   0.00000
 Mulliken charges with hydrogens summed into heavy atoms:
               1
     1  C   -0.039547
     2  C    0.084555
     3  O   -0.090043
     4  C    0.084585
     5  C   -0.039551
 Charge=              0.0000 electrons
 Dipole moment (field-independent basis, Debye):
    X=              0.0005    Y=              0.4050    Z=              0.0005  Tot=              0.4050
 N-N= 1.028271415621D+02 E-N=-1.700320791174D+02  KE=-1.649848028636D+01
 Leave Link  601 at Sat Mar 12 19:22:15 2016, MaxMem=    33554432 cpu:         0.0
 (Enter /opt/g09/g09/l9999.exe)
 1\1\GINC-LINUX-CBNE\FOpt\RAM1\ZDO\C4H4O1\DUSTIN\12-Mar-2016\0\\#P AM1(
 Input,Print) opt\\hi\\0,1\C,0.9628896104,-0.7257353818,0.0027156042\C,
 -0.357986389,-1.1095515957,-0.0029369148\O,-1.1812187261,0.0046010545,
 -0.0093817446\C,-0.3473204677,1.1108246965,-0.0097026929\C,0.969736975
 7,0.7143079212,-0.0017324825\H,1.8532233843,1.343009703,0.0003563412\H
 ,-0.8613848938,2.0657996784,-0.0140274175\H,-0.8811128536,-2.059551883
 5,-0.0022737762\H,1.8401243599,-1.3630721925,0.0084080831\\Version=ES6
 4L-G09RevD.01\State=1-A\HF=-0.0448497\RMSD=2.657e-09\RMSF=7.247e-05\Di
 pole=0.1593284,-0.0007813,0.0009516\PG=C01 [X(C4H4O1)]\\@


0EVERYBODY IS IGNORANT, ONLY ON DIFFERENT SUBJECTS.
0          WILL ROGERS
 Job cpu time:       0 days  0 hours  0 minutes  1.0 seconds.
 File lengths (MBytes):  RWF=      5 Int=      0 D2E=      0 Chk=      2 Scr=      1
 Normal termination of Gaussian 09 at Sat Mar 12 19:22:15 2016.
