 Entering Gaussian System, Link 0=g09
 Input=FuranDFT.com
 Output=FuranDFT.log
 Initial command:
 /opt/g09/g09/l1.exe "/opt/g09/scratch/Gau-12027.inp" -scrdir="/opt/g09/scratch/"
 Entering Link 1 = /opt/g09/g09/l1.exe PID=     12028.
  
 Copyright (c) 1988,1990,1992,1993,1995,1998,2003,2009,2013,
            Gaussian, Inc.  All Rights Reserved.
  
 This is part of the Gaussian(R) 09 program.  It is based on
 the Gaussian(R) 03 system (copyright 2003, Gaussian, Inc.),
 the Gaussian(R) 98 system (copyright 1998, Gaussian, Inc.),
 the Gaussian(R) 94 system (copyright 1995, Gaussian, Inc.),
 the Gaussian 92(TM) system (copyright 1992, Gaussian, Inc.),
 the Gaussian 90(TM) system (copyright 1990, Gaussian, Inc.),
 the Gaussian 88(TM) system (copyright 1988, Gaussian, Inc.),
 the Gaussian 86(TM) system (copyright 1986, Carnegie Mellon
 University), and the Gaussian 82(TM) system (copyright 1983,
 Carnegie Mellon University). Gaussian is a federally registered
 trademark of Gaussian, Inc.
  
 This software contains proprietary and confidential information,
 including trade secrets, belonging to Gaussian, Inc.
  
 This software is provided under written license and may be
 used, copied, transmitted, or stored only in accord with that
 written license.
  
 The following legend is applicable only to US Government
 contracts under FAR:
  
                    RESTRICTED RIGHTS LEGEND
  
 Use, reproduction and disclosure by the US Government is
 subject to restrictions as set forth in subparagraphs (a)
 and (c) of the Commercial Computer Software - Restricted
 Rights clause in FAR 52.227-19.
  
 Gaussian, Inc.
 340 Quinnipiac St., Bldg. 40, Wallingford CT 06492
  
  
 ---------------------------------------------------------------
 Warning -- This program may not be used in any manner that
 competes with the business of Gaussian, Inc. or will provide
 assistance to any competitor of Gaussian, Inc.  The licensee
 of this program is prohibited from giving any competitor of
 Gaussian, Inc. access to this program.  By using this program,
 the user acknowledges that Gaussian, Inc. is engaged in the
 business of creating and licensing software in the field of
 computational chemistry and represents and warrants to the
 licensee that it is not a competitor of Gaussian, Inc. and that
 it will not use this program in any manner prohibited above.
 ---------------------------------------------------------------
  

 Cite this work as:
 Gaussian 09, Revision D.01,
 M. J. Frisch, G. W. Trucks, H. B. Schlegel, G. E. Scuseria, 
 M. A. Robb, J. R. Cheeseman, G. Scalmani, V. Barone, B. Mennucci, 
 G. A. Petersson, H. Nakatsuji, M. Caricato, X. Li, H. P. Hratchian, 
 A. F. Izmaylov, J. Bloino, G. Zheng, J. L. Sonnenberg, M. Hada, 
 M. Ehara, K. Toyota, R. Fukuda, J. Hasegawa, M. Ishida, T. Nakajima, 
 Y. Honda, O. Kitao, H. Nakai, T. Vreven, J. A. Montgomery, Jr., 
 J. E. Peralta, F. Ogliaro, M. Bearpark, J. J. Heyd, E. Brothers, 
 K. N. Kudin, V. N. Staroverov, T. Keith, R. Kobayashi, J. Normand, 
 K. Raghavachari, A. Rendell, J. C. Burant, S. S. Iyengar, J. Tomasi, 
 M. Cossi, N. Rega, J. M. Millam, M. Klene, J. E. Knox, J. B. Cross, 
 V. Bakken, C. Adamo, J. Jaramillo, R. Gomperts, R. E. Stratmann, 
 O. Yazyev, A. J. Austin, R. Cammi, C. Pomelli, J. W. Ochterski, 
 R. L. Martin, K. Morokuma, V. G. Zakrzewski, G. A. Voth, 
 P. Salvador, J. J. Dannenberg, S. Dapprich, A. D. Daniels, 
 O. Farkas, J. B. Foresman, J. V. Ortiz, J. Cioslowski, 
 and D. J. Fox, Gaussian, Inc., Wallingford CT, 2013.
 
 ******************************************
 Gaussian 09:  ES64L-G09RevD.01 24-Apr-2013
                25-Feb-2016 
 ******************************************
 ------------------------------------------------------
 #P AM1(Input,print) CIS(Singlets,NStates=15) pop(full)
 ------------------------------------------------------
 1/38=1/1;
 2/12=2,17=6,18=5,40=1/2;
 3/5=2,16=1,25=1,41=700000,135=100,136=1/1,2,8,3;
 4/35=1/1;
 5/5=2,35=1,38=5/2;
 8/6=1,10=90,108=15/1;
 9/41=15,42=1,48=1,49=10/14;
 6/7=3/1;
 99/5=1,9=1/99;
 Leave Link    1 at Thu Feb 25 13:43:09 2016, MaxMem=           0 cpu:         0.0
 (Enter /opt/g09/g09/l101.exe)
 -------------------
 Title Card Required
 -------------------
 Symbolic Z-matrix:
 Charge =  0 Multiplicity = 1
 C                    -2.32076   1.72243   0.15223 
 H                    -3.25599   2.22436   0.01691 
 C                    -2.06018   0.47583  -0.28308 
 H                    -2.68797  -0.13079  -0.90178 
 C                    -0.71774   0.0958    0.28699 
 H                    -0.20501  -0.83369   0.15261 
 C                    -0.29823   1.14988   1.0111 
 H                     0.56711   1.14209   1.6404 
 O                    -1.17147   2.30077   0.83301 
 
 NAtoms=      9 NQM=        9 NQMF=       0 NMMI=      0 NMMIF=      0
                NMic=       0 NMicF=      0.
                    Isotopes and Nuclear Properties:
 (Nuclear quadrupole moments (NQMom) in fm**2, nuclear magnetic moments (NMagM)
  in nuclear magnetons)

  Atom         1           2           3           4           5           6           7           8           9
 IAtWgt=          12           1          12           1          12           1          12           1          16
 AtmWgt=  12.0000000   1.0078250  12.0000000   1.0078250  12.0000000   1.0078250  12.0000000   1.0078250  15.9949146
 NucSpn=           0           1           0           1           0           1           0           1           0
 AtZEff=   0.0000000   0.0000000   0.0000000   0.0000000   0.0000000   0.0000000   0.0000000   0.0000000   0.0000000
 NQMom=    0.0000000   0.0000000   0.0000000   0.0000000   0.0000000   0.0000000   0.0000000   0.0000000   0.0000000
 NMagM=    0.0000000   2.7928460   0.0000000   2.7928460   0.0000000   2.7928460   0.0000000   2.7928460   0.0000000
 AtZNuc=   6.0000000   1.0000000   6.0000000   1.0000000   6.0000000   1.0000000   6.0000000   1.0000000   8.0000000
 Leave Link  101 at Thu Feb 25 13:43:09 2016, MaxMem=    33554432 cpu:         0.0
 (Enter /opt/g09/g09/l202.exe)
                          Input orientation:                          
 ---------------------------------------------------------------------
 Center     Atomic      Atomic             Coordinates (Angstroms)
 Number     Number       Type             X           Y           Z
 ---------------------------------------------------------------------
      1          6           0       -2.320756    1.722431    0.152225
      2          1           0       -3.255988    2.224358    0.016907
      3          6           0       -2.060185    0.475827   -0.283080
      4          1           0       -2.687970   -0.130795   -0.901785
      5          6           0       -0.717745    0.095800    0.286993
      6          1           0       -0.205012   -0.833687    0.152615
      7          6           0       -0.298230    1.149881    1.011100
      8          1           0        0.567112    1.142089    1.640404
      9          8           0       -1.171471    2.300766    0.833014
 ---------------------------------------------------------------------
                    Distance matrix (angstroms):
                    1          2          3          4          5
     1  C    0.000000
     2  H    1.070000   0.000000
     3  C    1.345886   2.139462   0.000000
     4  H    2.163384   2.591020   1.070000   0.000000
     5  C    2.287736   3.323610   1.507166   2.312212   0.000000
     6  H    3.318150   4.321865   2.312212   2.787633   1.070000
     7  C    2.270703   3.300190   2.287736   3.318150   1.345886
     8  H    3.300190   4.292219   3.323610   4.321865   2.139462
     9  O    1.455610   2.239884   2.316437   3.349893   2.316437
                    6          7          8          9
     6  H    0.000000
     7  C    2.163384   0.000000
     8  H    2.591020   1.070000   0.000000
     9  O    3.349893   1.455610   2.239884   0.000000
 Stoichiometry    C4H4O
 Framework group  CS[SG(O),X(C4H4)]
 Deg. of freedom    11
 Full point group                 CS      NOp   2
 Largest Abelian subgroup         CS      NOp   2
 Largest concise Abelian subgroup CS      NOp   2
                         Standard orientation:                         
 ---------------------------------------------------------------------
 Center     Atomic      Atomic             Coordinates (Angstroms)
 Number     Number       Type             X           Y           Z
 ---------------------------------------------------------------------
      1          6           0       -0.033604   -0.333018    1.135352
      2          1           0       -0.156173   -0.662024    2.146109
      3          6           0       -0.033604    0.957588    0.753583
      4          1           0       -0.044124    1.814845    1.393816
      5          6           0       -0.033604    0.957588   -0.753583
      6          1           0       -0.044124    1.814845   -1.393816
      7          6           0       -0.033604   -0.333018   -1.135352
      8          1           0       -0.156173   -0.662024   -2.146109
      9          8           0        0.150885   -1.225061    0.000000
 ---------------------------------------------------------------------
 Rotational constants (GHZ):      8.9307468      8.7092973      4.4295801
 Leave Link  202 at Thu Feb 25 13:43:09 2016, MaxMem=    33554432 cpu:         0.0
 (Enter /opt/g09/g09/l301.exe)

 Semi-emprical parameters in input format:
 Method=8 CoreType=1 PeptideFC=0.0114505045 RIJScale=0.5291772086
 ****
 H       
 PQN=1 NValence=1 F0ss=0.4721553327 ZetaOverlap=1.1880780000 U=-0.4188110042
 Beta=-0.2268825074 CoreKO=1.0589197790 KON=0,0,0,1.0589197790 KON=1,0,1,1.0589197790
 KON=0,1,1,1.0589197790 KON=2,1,1,1.0589197790 EISol=-0.4188110042 EHeat=0.0830298228
 Alpha=1.5252601686
 GCore=0.0085277107,1.4001425905,2.2676713595
 GCore=0.0003534810,1.4001425905,3.4015070392
 GCore=-0.0012733648,0.5600570362,3.9684248791
 ****
 C       
 PQN=2,2 NValence=4 F0ss=0.4494442496 F0sp=0.4215147623 F0pp=0.3768030831 F2pp=0.1898715146
 G1sp=0.2679025821
 ZetaOverlap=1.8086650000,1.6851160000
 U=-1.9120180828,-1.4557965594
 Beta=-0.5775444233,-0.2836784428 DDN=0,1,0.8236736000 DDN=1,1,0.7268015000
 CoreKO=1.1124284736 KON=0,0,0,1.1124284736 KON=1,0,1,0.8219701441 KON=0,1,1,1.1124284736
 KON=2,1,1,0.7783928119 EISol=-4.4398989268 EHeat=0.2723305520 Alpha=1.4014062429
 DipHyp=1.6472524267
 GCore=0.0007885612,1.4001425905,3.0235618126
 GCore=0.0031892455,1.4001425905,3.4959933458
 GCore=-0.0013931594,1.4001425905,3.8739385724
 GCore=-0.0000875022,1.4001425905,5.0077742521
 ****
 O       
 PQN=2,2 NValence=6 F0ss=0.5666745976 F0sp=0.5321302318 F0pp=0.4958708974 F2pp=0.2358081713
 G1sp=0.4343770262
 ZetaOverlap=3.1080320000,2.5240390000
 U=-3.5951865036,-2.8760896690
 Beta=-1.0757546603,-1.0757546603 DDN=0,1,0.4988896000 DDN=1,1,0.4852322000
 CoreKO=0.8822957477 KON=0,0,0,0.8822957477 KON=1,0,1,0.5019543089 KON=0,1,1,0.8822957477
 KON=2,1,1,0.5515584117 EISol=-11.6164441184 EHeat=0.0949133088 Alpha=2.3576807890
 DipHyp=0.9977217969
 GCore=0.0195117322,1.4001425905,1.6023328031
 GCore=0.0056550009,1.9601996266,2.7307884326
 ****
 
 Standard basis: VSTO-6G (5D, 7F)
 Ernie: Thresh=  0.10000D-02 Tol=  0.10000D-05 Strict=F.
  NNHCO=     0 NNPyr=     0 NCTC=     0               EPep=         0.000000000
    EC=        67.314658771  ECS=         1.683590953   EG=         0.308777096
   EHC=         0.000000000  EAt=       -31.051283843  AtH=         1.516354808
 EPDDG=         0.000000000  ECC=        69.307026819 EAtT=        32.567638650
 There are    13 symmetry adapted cartesian basis functions of A'  symmetry.
 There are    11 symmetry adapted cartesian basis functions of A"  symmetry.
 There are    13 symmetry adapted basis functions of A'  symmetry.
 There are    11 symmetry adapted basis functions of A"  symmetry.
    24 basis functions,   144 primitive gaussians,    24 cartesian basis functions
    13 alpha electrons       13 beta electrons
       nuclear repulsion energy       101.8746654697 Hartrees.
 IExCor=    0 DFT=F Ex=HF Corr=None ExCW=0 ScaHFX=  1.000000
 ScaDFX=  1.000000  1.000000  1.000000  1.000000 ScalE2=  1.000000  1.000000
 IRadAn=      0 IRanWt=     -1 IRanGd=            0 ICorTp=0 IEmpDi=  4
 Integral buffers will be    131072 words long.
 Regular integral format.
 Two-electron integral symmetry is turned off.
 Leave Link  301 at Thu Feb 25 13:43:09 2016, MaxMem=    33554432 cpu:         0.0
 (Enter /opt/g09/g09/l302.exe)
 Do NDO integrals.
 NPDir=0 NMtPBC=     1 NCelOv=     1 NCel=       1 NClECP=     1 NCelD=      1
         NCelK=      1 NCelE2=     1 NClLst=     1 CellRange=     0.0.
 One-electron integrals computed using PRISM.
 NBasis=    24 RedAO= T EigKep=  7.07D-01  NBF=    13    11
 NBsUse=    24 1.00D-06 EigRej= -1.00D+00 NBFU=    13    11
 Leave Link  302 at Thu Feb 25 13:43:09 2016, MaxMem=    33554432 cpu:         0.0
 (Enter /opt/g09/g09/l308.exe)
 Leave Link  308 at Thu Feb 25 13:43:09 2016, MaxMem=    33554432 cpu:         0.0
 (Enter /opt/g09/g09/l303.exe)
 DipDrv:  MaxL=1.
 Leave Link  303 at Thu Feb 25 13:43:09 2016, MaxMem=    33554432 cpu:         0.0
 (Enter /opt/g09/g09/l401.exe)
 Simple Huckel Guess.
 JPrj=0 DoOrth=F DoCkMO=F.
 Initial guess orbital symmetries:
       Occupied  (A') (A') (A") (A') (A") (A') (A") (A') (A") (A')
                 (A') (A') (A")
       Virtual   (A') (A") (A") (A") (A') (A') (A") (A') (A") (A')
                 (A")
 The electronic state of the initial guess is 1-A'.
 Leave Link  401 at Thu Feb 25 13:43:09 2016, MaxMem=    33554432 cpu:         0.0
 (Enter /opt/g09/g09/l502.exe)
 Closed shell SCF:
 Using DIIS extrapolation, IDIIS=  1040.
 Overlap will be assumed to be unity.
 Two-electron integral symmetry not used.
 Keep J ints in memory in canonical form, NReq=888086.
 IVT=       79479 IEndB=       79479 NGot=    33554432 MDV=    33473469
 LenX=    33473469 LenY=    33472452
 Requested convergence on RMS density matrix=1.00D-08 within 128 cycles.
 Requested convergence on MAX density matrix=1.00D-06.
 Requested convergence on             energy=1.00D-06.
 No special actions if energy rises.
 FoFCou: FMM=F IPFlag=           0 FMFlag=           0 FMFlg1=           0
         NFxFlg=           0 DoJE=F BraDBF=F KetDBF=F FulRan=T
         wScrn=  0.000000 ICntrl=     600 IOpCl=  2 I1Cent=           0 NGrid=           0
         NMat0=    1 NMatS0=     54 NMatT0=    0 NMatD0=    1 NMtDS0=    0 NMtDT0=    0
 Symmetry not used in FoFCou.

 Cycle   1  Pass 1  IDiag  1:
 E= 0.341055069543572    
 DIIS: error= 5.16D-02 at cycle   1 NSaved=   1.
 NSaved= 1 IEnMin= 1 EnMin= 0.341055069543572     IErMin= 1 ErrMin= 5.16D-02
 ErrMax= 5.16D-02  0.00D+00 EMaxC= 1.00D-01 BMatC= 1.08D-01 BMatP= 1.08D-01
 IDIUse=3 WtCom= 4.84D-01 WtEn= 5.16D-01
 Coeff-Com:  0.100D+01
 Coeff-En:   0.100D+01
 Coeff:      0.100D+01
 GapD=    2.000 DampG=2.000 DampE=0.500 DampFc=1.0000 IDamp=-1.
 RMSDP=1.97D-02 MaxDP=1.54D-01              OVMax= 0.00D+00

 Cycle   2  Pass 1  IDiag  1:
 E= 0.605347461532091E-01 Delta-E=       -0.280520323390 Rises=F Damp=F
 DIIS: error= 2.01D-02 at cycle   2 NSaved=   2.
 NSaved= 2 IEnMin= 2 EnMin= 0.605347461532091E-01 IErMin= 2 ErrMin= 2.01D-02
 ErrMax= 2.01D-02  0.00D+00 EMaxC= 1.00D-01 BMatC= 9.41D-03 BMatP= 1.08D-01
 IDIUse=3 WtCom= 7.99D-01 WtEn= 2.01D-01
 Coeff-Com: -0.367D+00 0.137D+01
 Coeff-En:   0.000D+00 0.100D+01
 Coeff:     -0.293D+00 0.129D+01
 RMSDP=8.26D-03 MaxDP=7.84D-02 DE=-2.81D-01 OVMax= 0.00D+00

 Cycle   3  Pass 1  IDiag  1:
 E= 0.303243848648833E-01 Delta-E=       -0.030210361288 Rises=F Damp=F
 DIIS: error= 3.10D-03 at cycle   3 NSaved=   3.
 NSaved= 3 IEnMin= 3 EnMin= 0.303243848648833E-01 IErMin= 3 ErrMin= 3.10D-03
 ErrMax= 3.10D-03  0.00D+00 EMaxC= 1.00D-01 BMatC= 3.31D-04 BMatP= 9.41D-03
 IDIUse=3 WtCom= 9.69D-01 WtEn= 3.10D-02
 Coeff-Com:  0.157D+00-0.660D+00 0.150D+01
 Coeff-En:   0.000D+00 0.000D+00 0.100D+01
 Coeff:      0.152D+00-0.639D+00 0.149D+01
 RMSDP=2.52D-03 MaxDP=2.91D-02 DE=-3.02D-02 OVMax= 0.00D+00

 Cycle   4  Pass 1  IDiag  3:
 E= 0.284141105534133E-01 Delta-E=       -0.001910274311 Rises=F Damp=F
 DIIS: error= 9.89D-04 at cycle   4 NSaved=   4.
 NSaved= 4 IEnMin= 4 EnMin= 0.284141105534133E-01 IErMin= 4 ErrMin= 9.89D-04
 ErrMax= 9.89D-04  0.00D+00 EMaxC= 1.00D-01 BMatC= 2.65D-05 BMatP= 3.31D-04
 IDIUse=3 WtCom= 9.90D-01 WtEn= 9.89D-03
 Coeff-Com:  0.147D-01-0.596D-01-0.157D+00 0.120D+01
 Coeff-En:   0.000D+00 0.000D+00 0.000D+00 0.100D+01
 Coeff:      0.146D-01-0.590D-01-0.156D+00 0.120D+01
 Fock symm off for IB=2 I1=    1 I=   14 J=    8 Cut=1.00D-07 Err=2.48D-03
 Fock matrix is not symmetric: symmetry in diagonalization turned off.
 Gap=     0.377 Goal=   None    Shift=    0.000
 RMSDP=8.23D-04 MaxDP=9.97D-03 DE=-1.91D-03 OVMax= 1.03D-02

 Cycle   5  Pass 1  IDiag  3:
 E= 0.282418274682783E-01 Delta-E=       -0.000172283085 Rises=F Damp=F
 DIIS: error= 2.37D-04 at cycle   5 NSaved=   5.
 NSaved= 5 IEnMin= 5 EnMin= 0.282418274682783E-01 IErMin= 5 ErrMin= 2.37D-04
 ErrMax= 2.37D-04  0.00D+00 EMaxC= 1.00D-01 BMatC= 2.17D-06 BMatP= 2.65D-05
 IDIUse=3 WtCom= 9.98D-01 WtEn= 2.37D-03
 Coeff-Com: -0.964D-02 0.411D-01-0.180D-01-0.423D+00 0.141D+01
 Coeff-En:   0.000D+00 0.000D+00 0.000D+00 0.000D+00 0.100D+01
 Coeff:     -0.962D-02 0.411D-01-0.179D-01-0.422D+00 0.141D+01
 Gap=     0.377 Goal=   None    Shift=    0.000
 RMSDP=2.92D-04 MaxDP=2.17D-03 DE=-1.72D-04 OVMax= 3.48D-03

 Cycle   6  Pass 1  IDiag  3:
 E= 0.282237670288623E-01 Delta-E=       -0.000018060439 Rises=F Damp=F
 DIIS: error= 1.09D-04 at cycle   6 NSaved=   6.
 NSaved= 6 IEnMin= 6 EnMin= 0.282237670288623E-01 IErMin= 6 ErrMin= 1.09D-04
 ErrMax= 1.09D-04  0.00D+00 EMaxC= 1.00D-01 BMatC= 2.45D-07 BMatP= 2.17D-06
 IDIUse=3 WtCom= 9.99D-01 WtEn= 1.09D-03
 Coeff-Com:  0.227D-02-0.915D-02 0.169D-01 0.725D-01-0.592D+00 0.151D+01
 Coeff-En:   0.000D+00 0.000D+00 0.000D+00 0.000D+00 0.000D+00 0.100D+01
 Coeff:      0.227D-02-0.914D-02 0.169D-01 0.725D-01-0.592D+00 0.151D+01
 Gap=     0.377 Goal=   None    Shift=    0.000
 RMSDP=1.17D-04 MaxDP=1.02D-03 DE=-1.81D-05 OVMax= 1.54D-03

 Cycle   7  Pass 1  IDiag  3:
 E= 0.282214290499780E-01 Delta-E=       -0.000002337979 Rises=F Damp=F
 DIIS: error= 3.39D-05 at cycle   7 NSaved=   7.
 NSaved= 7 IEnMin= 7 EnMin= 0.282214290499780E-01 IErMin= 7 ErrMin= 3.39D-05
 ErrMax= 3.39D-05  0.00D+00 EMaxC= 1.00D-01 BMatC= 1.83D-08 BMatP= 2.45D-07
 IDIUse=1 WtCom= 1.00D+00 WtEn= 0.00D+00
 Coeff-Com: -0.335D-03 0.728D-03-0.329D-02-0.110D-01 0.156D+00-0.672D+00
 Coeff-Com:  0.153D+01
 Coeff:     -0.335D-03 0.728D-03-0.329D-02-0.110D-01 0.156D+00-0.672D+00
 Coeff:      0.153D+01
 Gap=     0.377 Goal=   None    Shift=    0.000
 RMSDP=3.66D-05 MaxDP=3.54D-04 DE=-2.34D-06 OVMax= 4.49D-04

 Cycle   8  Pass 1  IDiag  3:
 E= 0.282212555317187E-01 Delta-E=       -0.000000173518 Rises=F Damp=F
 DIIS: error= 4.80D-06 at cycle   8 NSaved=   8.
 NSaved= 8 IEnMin= 8 EnMin= 0.282212555317187E-01 IErMin= 8 ErrMin= 4.80D-06
 ErrMax= 4.80D-06  0.00D+00 EMaxC= 1.00D-01 BMatC= 5.53D-10 BMatP= 1.83D-08
 IDIUse=1 WtCom= 1.00D+00 WtEn= 0.00D+00
 Coeff-Com: -0.898D-05 0.406D-03-0.173D-03 0.550D-02-0.597D-01 0.286D+00
 Coeff-Com: -0.775D+00 0.154D+01
 Coeff:     -0.898D-05 0.406D-03-0.173D-03 0.550D-02-0.597D-01 0.286D+00
 Coeff:     -0.775D+00 0.154D+01
 Gap=     0.377 Goal=   None    Shift=    0.000
 RMSDP=4.98D-06 MaxDP=4.64D-05 DE=-1.74D-07 OVMax= 6.05D-05

 Cycle   9  Pass 1  IDiag  3:
 E= 0.282212515709119E-01 Delta-E=       -0.000000003961 Rises=F Damp=F
 DIIS: error= 5.20D-07 at cycle   9 NSaved=   9.
 NSaved= 9 IEnMin= 9 EnMin= 0.282212515709119E-01 IErMin= 9 ErrMin= 5.20D-07
 ErrMax= 5.20D-07  0.00D+00 EMaxC= 1.00D-01 BMatC= 1.62D-11 BMatP= 5.53D-10
 IDIUse=1 WtCom= 1.00D+00 WtEn= 0.00D+00
 Coeff-Com:  0.352D-04-0.309D-03 0.297D-03-0.199D-02 0.216D-01-0.113D+00
 Coeff-Com:  0.321D+00-0.722D+00 0.149D+01
 Coeff:      0.352D-04-0.309D-03 0.297D-03-0.199D-02 0.216D-01-0.113D+00
 Coeff:      0.321D+00-0.722D+00 0.149D+01
 Gap=     0.377 Goal=   None    Shift=    0.000
 RMSDP=7.17D-07 MaxDP=5.20D-06 DE=-3.96D-09 OVMax= 8.75D-06

 Cycle  10  Pass 1  IDiag  3:
 E= 0.282212514746050E-01 Delta-E=       -0.000000000096 Rises=F Damp=F
 DIIS: error= 8.07D-08 at cycle  10 NSaved=  10.
 NSaved=10 IEnMin=10 EnMin= 0.282212514746050E-01 IErMin=10 ErrMin= 8.07D-08
 ErrMax= 8.07D-08  0.00D+00 EMaxC= 1.00D-01 BMatC= 5.54D-13 BMatP= 1.62D-11
 IDIUse=1 WtCom= 1.00D+00 WtEn= 0.00D+00
 Coeff-Com: -0.167D-04 0.129D-03-0.154D-03 0.775D-03-0.739D-02 0.391D-01
 Coeff-Com: -0.113D+00 0.257D+00-0.632D+00 0.145D+01
 Coeff:     -0.167D-04 0.129D-03-0.154D-03 0.775D-03-0.739D-02 0.391D-01
 Coeff:     -0.113D+00 0.257D+00-0.632D+00 0.145D+01
 Gap=     0.377 Goal=   None    Shift=    0.000
 RMSDP=1.20D-07 MaxDP=5.95D-07 DE=-9.63D-11 OVMax= 8.48D-07

 Cycle  11  Pass 1  IDiag  3:
 E= 0.282212514716207E-01 Delta-E=       -0.000000000003 Rises=F Damp=F
 DIIS: error= 2.24D-08 at cycle  11 NSaved=  11.
 NSaved=11 IEnMin=11 EnMin= 0.282212514716207E-01 IErMin=11 ErrMin= 2.24D-08
 ErrMax= 2.24D-08  0.00D+00 EMaxC= 1.00D-01 BMatC= 2.41D-14 BMatP= 5.54D-13
 IDIUse=1 WtCom= 1.00D+00 WtEn= 0.00D+00
 Coeff-Com:  0.371D-05-0.281D-04 0.338D-04-0.158D-03 0.144D-02-0.788D-02
 Coeff-Com:  0.228D-01-0.512D-01 0.135D+00-0.435D+00 0.133D+01
 Coeff:      0.371D-05-0.281D-04 0.338D-04-0.158D-03 0.144D-02-0.788D-02
 Coeff:      0.228D-01-0.512D-01 0.135D+00-0.435D+00 0.133D+01
 Gap=     0.377 Goal=   None    Shift=    0.000
 RMSDP=2.57D-08 MaxDP=1.75D-07 DE=-2.98D-12 OVMax= 2.68D-07

 Cycle  12  Pass 1  IDiag  3:
 E= 0.282212514712938E-01 Delta-E=        0.000000000000 Rises=F Damp=F
 DIIS: error= 9.02D-09 at cycle  12 NSaved=  12.
 NSaved=12 IEnMin=12 EnMin= 0.282212514712938E-01 IErMin=12 ErrMin= 9.02D-09
 ErrMax= 9.02D-09  0.00D+00 EMaxC= 1.00D-01 BMatC= 2.53D-15 BMatP= 2.41D-14
 IDIUse=1 WtCom= 1.00D+00 WtEn= 0.00D+00
 Coeff-Com: -0.317D-06 0.254D-05-0.283D-05 0.130D-04-0.910D-04 0.600D-03
 Coeff-Com: -0.169D-02 0.313D-02-0.116D-01 0.760D-01-0.597D+00 0.153D+01
 Coeff:     -0.317D-06 0.254D-05-0.283D-05 0.130D-04-0.910D-04 0.600D-03
 Coeff:     -0.169D-02 0.313D-02-0.116D-01 0.760D-01-0.597D+00 0.153D+01
 Gap=     0.377 Goal=   None    Shift=    0.000
 RMSDP=1.01D-08 MaxDP=7.20D-08 DE=-3.27D-13 OVMax= 1.11D-07

 Cycle  13  Pass 1  IDiag  3:
 E= 0.282212514711375E-01 Delta-E=        0.000000000000 Rises=F Damp=F
 DIIS: error= 2.58D-09 at cycle  13 NSaved=  13.
 NSaved=13 IEnMin=13 EnMin= 0.282212514711375E-01 IErMin=13 ErrMin= 2.58D-09
 ErrMax= 2.58D-09  0.00D+00 EMaxC= 1.00D-01 BMatC= 1.59D-16 BMatP= 2.53D-15
 IDIUse=1 WtCom= 1.00D+00 WtEn= 0.00D+00
 Coeff-Com:  0.526D-07-0.454D-06 0.452D-06-0.182D-05 0.149D-06-0.573D-04
 Coeff-Com:  0.138D-03 0.982D-04 0.144D-02-0.244D-01 0.278D+00-0.895D+00
 Coeff-Com:  0.164D+01
 Coeff:      0.526D-07-0.454D-06 0.452D-06-0.182D-05 0.149D-06-0.573D-04
 Coeff:      0.138D-03 0.982D-04 0.144D-02-0.244D-01 0.278D+00-0.895D+00
 Coeff:      0.164D+01
 Gap=     0.377 Goal=   None    Shift=    0.000
 RMSDP=2.57D-09 MaxDP=2.03D-08 DE=-1.56D-13 OVMax= 2.97D-08

 Cycle  14  Pass 2  IDiag  1:
 SCF Done:  E(RAM1) =  0.282212514711E-01 A.U. after   14 cycles
            NFock= 13  Conv=0.26D-08     -V/T= 1.0017
 KE=-1.635359412157D+01 PE=-1.684464733153D+02 EE= 8.295362321860D+01
 Leave Link  502 at Thu Feb 25 13:43:09 2016, MaxMem=    33554432 cpu:         0.0
 (Enter /opt/g09/g09/l801.exe)
 Range of M.O.s used for correlation:     1    24
 NBasis=    24 NAE=    13 NBE=    13 NFC=     0 NFV=     0
 NROrb=     24 NOA=    13 NOB=    13 NVA=    11 NVB=    11
 Leave Link  801 at Thu Feb 25 13:43:09 2016, MaxMem=    33554432 cpu:         0.0
 (Enter /opt/g09/g09/l914.exe)
 RHF ground state
 MDV=    33554432 DFT=F DoStab=F Mixed=F DoRPA=F DoScal=F NonHer=F
 Making orbital integer symmetry assigments:
 Orbital symmetries:
       Occupied  (A') (A') (A") (A') (A") (A') (A") (A') (A") (A')
                 (A') (A') (A")
       Virtual   (A') (A") (A') (A") (A") (A') (A") (A') (A') (A")
                 (A")
    60 initial guesses have been made.
 Convergence on wavefunction:    0.001000000000000
 Davidson Disk Diagonalization:  ConvIn= 1.00D-03 SkipCon=T Conv= 1.00D-03.
 Max sub-space:   240 roots to seek:    60 dimension of matrix:          286
 Iteration     1 Dimension    60 NMult     0 NNew     60
 CISAX will form    60 AO SS matrices at one time.
 NMat=    60 NSing=    60 JSym2X= 0.
 FoFJK:  IHMeth= 8 ICntrl=       0 DoSepK=F KAlg= 0 I1Cent=   0 FoldK=F
 IRaf=         1 NMat= 120 IRICut=       1 DoRegI=T DoRafI=F ISym2E= 0.
 FoFCou: FMM=F IPFlag=           0 FMFlag=      100000 FMFlg1=           0
         NFxFlg=           0 DoJE=F BraDBF=F KetDBF=F FulRan=T
         wScrn=  0.000000 ICntrl=       0 IOpCl=  0 I1Cent=           0 NGrid=           0
         NMat0=  120 NMatS0=     60 NMatT0=    0 NMatD0=  120 NMtDS0=    0 NMtDT0=    0
 Symmetry not used in FoFCou.
 New state      2 was old state      4
 New state      3 was old state      2
 New state      4 was old state      6
 New state      5 was old state      8
 New state      6 was old state      7
 New state      7 was old state      5
 New state      8 was old state     15
 New state      9 was old state      3
 New state     10 was old state     14
 New state     11 was old state      9
 New state     12 was old state     18
 New state     13 was old state     12
 New state     14 was old state     21
 New state     15 was old state     13
 Excitation Energies [eV] at current iteration:
 Root      1 :     4.463287977088592
 Root      2 :     5.047305152026586
 Root      3 :     5.155265181277901
 Root      4 :     5.462205430843479
 Root      5 :     6.105408998696196
 Root      6 :     6.229727572232904
 Root      7 :     6.252393472874309
 Root      8 :     6.361721464675581
 Root      9 :     6.521406856152397
 Root     10 :     6.989861612441061
 Root     11 :     7.098448076420188
 Root     12 :     7.296302539637637
 Root     13 :     7.307985363551445
 Root     14 :     7.443440051559088
 Root     15 :     7.550343734919092
 Root     16 :     7.748442476071931
 Root     17 :     7.760139034413153
 Root     18 :     7.872739759133997
 Root     19 :     8.124016483369594
 Root     20 :     8.208910377799983
 Root     21 :     8.630537382249617
 Root     22 :     8.849477461752691
 Root     23 :     9.081254182672680
 Root     24 :     9.102845984744976
 Root     25 :     9.225622632150822
 Root     26 :     9.304784323213823
 Root     27 :     9.346644438516272
 Root     28 :     9.545249532140753
 Root     29 :     9.628857290044881
 Root     30 :     9.699657947108941
 Root     31 :     9.803018143568991
 Root     32 :     9.865315787316813
 Root     33 :     9.993430489072944
 Root     34 :    10.017811306658240
 Root     35 :    10.029983779743170
 Root     36 :    10.290906371968790
 Root     37 :    10.346195392776220
 Root     38 :    10.381687161112000
 Root     39 :    10.748686899853020
 Root     40 :    10.802979083506710
 Root     41 :    10.818349718606580
 Root     42 :    10.914680920823220
 Root     43 :    11.061778907887360
 Root     44 :    11.132471272957830
 Root     45 :    11.362036155881930
 Root     46 :    11.377852774339720
 Root     47 :    11.477904700016080
 Root     48 :    11.495364633824550
 Root     49 :    11.906190578864570
 Root     50 :    11.976713899428130
 Root     51 :    12.166044484426520
 Root     52 :    12.421169679160230
 Root     53 :    12.495482994235730
 Root     54 :    12.680152675963670
 Root     55 :    12.996520716316490
 Root     56 :    13.009057355949100
 Root     57 :    13.153650256356680
 Root     58 :    13.315960080505580
 Root     59 :    13.457626641937710
 Root     60 :    13.647820486499880
 Iteration     2 Dimension   120 NMult    60 NNew     60
 CISAX will form    60 AO SS matrices at one time.
 NMat=    60 NSing=    60 JSym2X= 0.
 Root      1 not converged, maximum delta is    0.035491736469872
 Root      2 not converged, maximum delta is    0.027960496852640
 Root      3 not converged, maximum delta is    0.021672536591318
 Root      4 not converged, maximum delta is    0.071329129722122
 Root      5 not converged, maximum delta is    0.072470933385992
 Root      6 not converged, maximum delta is    0.091254200126247
 New state      7 was old state      8
 Root      7 not converged, maximum delta is    0.193677198642670
 New state      8 was old state      7
 Root      8 not converged, maximum delta is    0.144866600112310
 Root      9 not converged, maximum delta is    0.076770488079335
 Root     10 not converged, maximum delta is    0.165515349102729
 Root     11 not converged, maximum delta is    0.045063839186597
 Root     12 not converged, maximum delta is    0.050548409651965
 New state     13 was old state     15
 Root     13 not converged, maximum delta is    0.276502064356781
 New state     14 was old state     13
 Root     14 not converged, maximum delta is    0.019530353465148
 New state     15 was old state     14
 Root     15 not converged, maximum delta is    0.044489735778443
 Excitation Energies [eV] at current iteration:
 Root      1 :     4.366679152775933   Change is   -0.096608824312660
 Root      2 :     5.027777245099155   Change is   -0.019527906927431
 Root      3 :     5.130635838932474   Change is   -0.024629342345427
 Root      4 :     5.360306525503788   Change is   -0.101898905339691
 Root      5 :     5.968902388876395   Change is   -0.136506609819800
 Root      6 :     6.100794864161482   Change is   -0.128932708071423
 Root      7 :     6.149830642830165   Change is   -0.211890821845416
 Root      8 :     6.204508259378766   Change is   -0.047885213495543
 Root      9 :     6.447922702211028   Change is   -0.073484153941368
 Root     10 :     6.851230415501754   Change is   -0.138631196939308
 Root     11 :     7.020667694423626   Change is   -0.077780381996562
 Root     12 :     7.166979678063250   Change is   -0.129322861574386
 Root     13 :     7.245072499648851   Change is   -0.305271235270242
 Root     14 :     7.273127430825456   Change is   -0.034857932725989
 Root     15 :     7.379881491579531   Change is   -0.063558559979557
 Root     16 :     7.549876714486809   Change is   -0.198565761585122
 Root     17 :     7.674636827549011   Change is   -0.085502206864142
 Root     18 :     7.744178939803027   Change is   -0.128560819330970
 Root     19 :     7.961823981135293   Change is   -0.162192502234301
 Root     20 :     8.084432374965969   Change is   -0.124478002834014
 Root     21 :     8.394013940382051   Change is   -0.236523441867568
 Root     22 :     8.764563146477343   Change is   -0.461059485673480
 Root     23 :     8.812638354970220   Change is   -0.036839106782471
 Root     24 :     8.948559862416532   Change is   -0.132694320256149
 Root     25 :     9.029817584540210   Change is   -0.274966738673613
 Root     26 :     9.065062213596001   Change is   -0.281582224920271
 Root     27 :     9.072092953331543   Change is   -0.030753031413432
 Root     28 :     9.262306241003916   Change is   -0.282943291136837
 Root     29 :     9.468528776731617   Change is   -0.561455003011557
 Root     30 :     9.552006286850119   Change is   -0.313309500466693
 Root     31 :     9.598663222566655   Change is   -0.030194067478225
 Root     32 :     9.672063633960235   Change is   -0.027594313148706
 Root     33 :     9.695616496056408   Change is   -0.107401647512585
 Root     34 :     9.719631299795259   Change is   -0.273799189277685
 Root     35 :     9.732751639000929   Change is   -0.648935522111067
 Root     36 :     9.809218696472856   Change is   -0.536976696303366
 Root     37 :     9.899936173450616   Change is   -0.117875133207625
 Root     38 :    10.142416044690180   Change is   -0.606270855162839
 Root     39 :    10.183658032932560   Change is   -0.107248339036233
 Root     40 :    10.254018889627470   Change is   -0.564330828979114
 Root     41 :    10.324047907409820   Change is   -0.808423365548008
 Root     42 :    10.433401935579600   Change is   -0.628376972307765
 Root     43 :    10.578399287843150   Change is   -0.799453486496570
 Root     44 :    10.729910273535840   Change is   -0.632125882346085
 Root     45 :    10.766407244676440   Change is   -0.036571838830263
 Root     46 :    10.849237299798570   Change is   -0.065443621024643
 Root     47 :    11.039846251704250   Change is   -0.438058448311830
 Root     48 :    11.188868596073160   Change is   -0.306496037751387
 Root     49 :    11.371441124757300   Change is   -0.794603359669218
 Root     50 :    11.570500122302850   Change is   -0.335690456561726
 Root     51 :    11.623574665145730   Change is   -0.797595014014501
 Root     52 :    11.639784435562300   Change is   -0.336929463865829
 Root     53 :    11.871829338866000   Change is   -1.137228017083093
 Root     54 :    12.153026962764490   Change is   -0.342456031471240
 Root     55 :    12.223766864183110   Change is   -0.772753852133379
 Root     56 :    12.342134950950000
 Root     57 :    12.646420673811150   Change is   -0.033732002152523
 Root     58 :    12.910365419636990   Change is   -0.405594660868589
 Root     59 :    12.918890061591910   Change is   -0.234760194764779
 Root     60 :    13.023471016611890
 Iteration     3 Dimension   135 NMult   120 NNew     15
 CISAX will form    15 AO SS matrices at one time.
 NMat=    15 NSing=    15 JSym2X= 0.
 Root      1 not converged, maximum delta is    0.001337309188919
 Root      2 has converged.
 Root      3 has converged.
 Root      4 has converged.
 Root      5 has converged.
 Root      6 has converged.
 Root      7 has converged.
 Root      8 has converged.
 Root      9 has converged.
 Root     10 has converged.
 Root     11 has converged.
 Root     12 has converged.
 Root     13 has converged.
 Root     14 has converged.
 Root     15 has converged.
 Excitation Energies [eV] at current iteration:
 Root      1 :     4.366379261664205   Change is   -0.000299891111728
 Root      2 :     5.027741117231252   Change is   -0.000036127867902
 Root      3 :     5.130596793421071   Change is   -0.000039045511403
 Root      4 :     5.360279405129377   Change is   -0.000027120374412
 Root      5 :     5.968769126640908   Change is   -0.000133262235486
 Root      6 :     6.100632434013066   Change is   -0.000162430148416
 Root      7 :     6.149745248584901   Change is   -0.000085394245264
 Root      8 :     6.204457561598238   Change is   -0.000050697780528
 Root      9 :     6.447855357557175   Change is   -0.000067344653854
 Root     10 :     6.851178567071957   Change is   -0.000051848429796
 Root     11 :     7.020645817741733   Change is   -0.000021876681893
 Root     12 :     7.166948727654443   Change is   -0.000030950408807
 Root     13 :     7.245030092323837   Change is   -0.000042407325013
 Root     14 :     7.273100767491838   Change is   -0.000026663333618
 Root     15 :     7.379851426231522   Change is   -0.000030065348009
 Iteration     4 Dimension   136 NMult   135 NNew      1
 CISAX will form     1 AO SS matrices at one time.
 NMat=     1 NSing=     1 JSym2X= 0.
 Root      1 has converged.
 Root      2 has converged.
 Root      3 has converged.
 Root      4 has converged.
 Root      5 has converged.
 Root      6 has converged.
 Root      7 has converged.
 Root      8 has converged.
 Root      9 has converged.
 Root     10 has converged.
 Root     11 has converged.
 Root     12 has converged.
 Root     13 has converged.
 Root     14 has converged.
 Root     15 has converged.
 Excitation Energies [eV] at current iteration:
 Root      1 :     4.366378316965663   Change is   -0.000000944698542
 Root      2 :     5.027741104692946   Change is   -0.000000012538307
 Root      3 :     5.130596793421041   Change is   -0.000000000000030
 Root      4 :     5.360279405129377   Change is    0.000000000000000
 Root      5 :     5.968769126640915   Change is    0.000000000000006
 Root      6 :     6.100632434013047   Change is   -0.000000000000018
 Root      7 :     6.149745006962639   Change is   -0.000000241622263
 Root      8 :     6.204457556653059   Change is   -0.000000004945178
 Root      9 :     6.447855357557187   Change is    0.000000000000012
 Root     10 :     6.851178566461381   Change is   -0.000000000610576
 Root     11 :     7.020645817741679   Change is   -0.000000000000054
 Root     12 :     7.166948687663047   Change is   -0.000000039991396
 Root     13 :     7.245030071461008   Change is   -0.000000020862830
 Root     14 :     7.273100767491845   Change is    0.000000000000006
 Root     15 :     7.379851426231510   Change is   -0.000000000000012
 Convergence achieved on expansion vectors.
 ***********************************************************************
 Excited states from <AA,BB:AA,BB> singles matrix:
 ***********************************************************************
 
 1PDM for each excited state written to RWF  633
 Ground to excited state transition densities written to RWF  633
 Ground to excited state transition electric dipole moments (Au):
       state          X           Y           Z        Dip. S.      Osc.
         1         0.0000      0.0000     -0.7872      0.6197      0.0663
         2         0.0000      0.0000     -0.2099      0.0441      0.0054
         3        -0.0877     -0.0614      0.0000      0.0115      0.0014
         4        -0.1009      0.0584      0.0000      0.0136      0.0018
         5         0.0967      1.0492      0.0000      1.1102      0.1623
         6         0.0223     -1.0301      0.0000      1.0616      0.1587
         7         0.0000      0.0000     -0.3177      0.1010      0.0152
         8         0.0000      0.0000      0.5043      0.2543      0.0387
         9        -0.1226      0.7070      0.0000      0.5150      0.0813
        10         0.0000      0.0000      0.1649      0.0272      0.0046
        11         0.0701     -0.0210      0.0000      0.0053      0.0009
        12         0.0000      0.0000      0.1657      0.0274      0.0048
        13         0.0000      0.0000      0.0293      0.0009      0.0002
        14         0.0367      0.1831      0.0000      0.0349      0.0062
        15         0.2056     -0.1485      0.0000      0.0643      0.0116
 Ground to excited state transition velocity dipole moments (Au):
       state          X           Y           Z        Dip. S.      Osc.
         1         0.0000      0.0000      0.0601      0.0036      0.0150
         2         0.0000      0.0000      0.0058      0.0000      0.0001
         3         0.0480     -0.0096      0.0000      0.0024      0.0085
         4         0.0675     -0.0002      0.0000      0.0046      0.0154
         5        -0.0872     -0.1998      0.0000      0.0475      0.1444
         6         0.0177      0.1908      0.0000      0.0367      0.1092
         7         0.0000      0.0000      0.0649      0.0042      0.0124
         8         0.0000      0.0000     -0.0919      0.0084      0.0247
         9         0.1314     -0.1395      0.0000      0.0367      0.1033
        10         0.0000      0.0000     -0.0396      0.0016      0.0042
        11         0.0855      0.0134      0.0000      0.0075      0.0193
        12         0.0000      0.0000     -0.0376      0.0014      0.0036
        13         0.0000      0.0000     -0.0180      0.0003      0.0008
        14         0.0453     -0.0411      0.0000      0.0037      0.0093
        15        -0.1020      0.0513      0.0000      0.0130      0.0321
 Ground to excited state transition magnetic dipole moments (Au):
       state          X           Y           Z
         1         0.8830      0.1024      0.0000
         2         0.0142     -0.5631      0.0000
         3         0.0000      0.0000     -0.0846
         4         0.0000      0.0000      0.3274
         5         0.0000      0.0000     -0.1662
         6         0.0000      0.0000     -0.0341
         7         0.0161      0.1983      0.0000
         8         0.0404     -0.0870      0.0000
         9         0.0000      0.0000     -0.0685
        10         0.1690      0.4320      0.0000
        11         0.0000      0.0000     -1.5112
        12        -0.1657      0.8682      0.0000
        13         0.0822     -0.8426      0.0000
        14         0.0000      0.0000      1.2959
        15         0.0000      0.0000      0.3861
 Ground to excited state transition velocity quadrupole moments (Au):
       state          XX          YY          ZZ          XY          XZ          YZ
         1         0.0000      0.0000      0.0000      0.0000     -0.0353     -0.4536
         2         0.0000      0.0000      0.0000      0.0000      0.1537     -0.0946
         3        -0.0572      0.0976     -0.0159     -0.0479      0.0000      0.0000
         4         0.0948     -0.1369      0.0251     -0.1364      0.0000      0.0000
         5        -0.0111     -0.1640      0.2821      0.1475      0.0000      0.0000
         6         0.0017      0.1828     -0.3647      0.2214      0.0000      0.0000
         7         0.0000      0.0000      0.0000      0.0000      0.1755      0.1600
         8         0.0000      0.0000      0.0000      0.0000      0.0412     -0.4441
         9        -0.0198     -0.1632      0.2984      0.0229      0.0000      0.0000
        10         0.0000      0.0000      0.0000      0.0000      0.1564     -0.2107
        11        -0.0332      0.0576      0.0399     -0.0306      0.0000      0.0000
        12         0.0000      0.0000      0.0000      0.0000     -0.2231     -0.0400
        13         0.0000      0.0000      0.0000      0.0000     -0.2828     -0.0261
        14        -0.0226     -0.0056      0.1208     -0.1001      0.0000      0.0000
        15        -0.0158      0.0634     -0.0066     -0.4686      0.0000      0.0000
 <0|del|b> * <b|rxdel|0> + <0|del|b> * <b|delr+rdel|0>
 Rotatory Strengths (R) in cgs (10**-40 erg-esu-cm/Gauss)
       state          XX          YY          ZZ    R(velocity)    E-M Angle
         1         0.0000      0.0000      0.0000      0.0000       90.00
         2         0.0000      0.0000      0.0000      0.0000       90.00
         3         0.0000      0.0000      0.0000      0.0000       90.00
         4         0.0000      0.0000      0.0000      0.0000       90.00
         5         0.0000      0.0000      0.0000      0.0000       90.00
         6         0.0000      0.0000      0.0000      0.0000       90.00
         7         0.0000      0.0000      0.0000      0.0000       90.00
         8         0.0000      0.0000      0.0000      0.0000       90.00
         9         0.0000      0.0000      0.0000      0.0000       90.00
        10         0.0000      0.0000      0.0000      0.0000       90.00
        11         0.0000      0.0000      0.0000      0.0000       90.00
        12         0.0000      0.0000      0.0000      0.0000       90.00
        13         0.0000      0.0000      0.0000      0.0000       90.00
        14         0.0000      0.0000      0.0000      0.0000       90.00
        15         0.0000      0.0000      0.0000      0.0000       90.00
 1/2[<0|r|b>*<b|rxdel|0> + (<0|rxdel|b>*<b|r|0>)*]
 Rotatory Strengths (R) in cgs (10**-40 erg-esu-cm/Gauss)
       state          XX          YY          ZZ     R(length)
         1         0.0000      0.0000      0.0000      0.0000
         2         0.0000      0.0000      0.0000      0.0000
         3         0.0000      0.0000      0.0000      0.0000
         4         0.0000      0.0000      0.0000      0.0000
         5         0.0000      0.0000      0.0000      0.0000
         6         0.0000      0.0000      0.0000      0.0000
         7         0.0000      0.0000      0.0000      0.0000
         8         0.0000      0.0000      0.0000      0.0000
         9         0.0000      0.0000      0.0000      0.0000
        10         0.0000      0.0000      0.0000      0.0000
        11         0.0000      0.0000      0.0000      0.0000
        12         0.0000      0.0000      0.0000      0.0000
        13         0.0000      0.0000      0.0000      0.0000
        14         0.0000      0.0000      0.0000      0.0000
        15         0.0000      0.0000      0.0000      0.0000
  1/2[<0|del|b>*<b|r|0> + (<0|r|b>*<b|del|0>)*] (Au)
       state          X           Y           Z        Dip. S.   Osc.(frdel)
         1         0.0000      0.0000     -0.0473      0.0473      0.0316
         2         0.0000      0.0000     -0.0012      0.0012      0.0008
         3        -0.0042      0.0006      0.0000      0.0036      0.0024
         4        -0.0068      0.0000      0.0000      0.0068      0.0045
         5        -0.0084     -0.2096      0.0000      0.2180      0.1453
         6         0.0004     -0.1966      0.0000      0.1962      0.1308
         7         0.0000      0.0000     -0.0206      0.0206      0.0137
         8         0.0000      0.0000     -0.0463      0.0463      0.0309
         9        -0.0161     -0.0986      0.0000      0.1147      0.0765
        10         0.0000      0.0000     -0.0065      0.0065      0.0044
        11         0.0060     -0.0003      0.0000     -0.0057     -0.0038
        12         0.0000      0.0000     -0.0062      0.0062      0.0042
        13         0.0000      0.0000     -0.0005      0.0005      0.0004
        14         0.0017     -0.0075      0.0000      0.0059      0.0039
        15        -0.0210     -0.0076      0.0000      0.0286      0.0191

 Excitation energies and oscillator strengths:
 
 Excited State   1:      Singlet-A"     4.3664 eV  283.95 nm  f=0.0663  <S**2>=0.000
      12 -> 15         0.17634
      13 -> 14         0.67107
 This state for optimization and/or second-order correction.
 Total Energy, E(CIS) =  0.188682709049    
 Copying the excited state density for this state as the 1-particle RhoCI density.
 
 Excited State   2:      Singlet-A"     5.0277 eV  246.60 nm  f=0.0054  <S**2>=0.000
      13 -> 16         0.68454
      13 -> 22         0.10707
 
 Excited State   3:      Singlet-A'     5.1306 eV  241.66 nm  f=0.0014  <S**2>=0.000
      12 -> 14        -0.47553
      13 -> 15         0.50768
 
 Excited State   4:      Singlet-A'     5.3603 eV  231.30 nm  f=0.0018  <S**2>=0.000
       8 -> 16         0.21833
      12 -> 16         0.63731
      12 -> 22         0.14716
 
 Excited State   5:      Singlet-A'     5.9688 eV  207.72 nm  f=0.1623  <S**2>=0.000
      12 -> 14        -0.35316
      12 -> 21         0.16108
      13 -> 15        -0.29783
      13 -> 18         0.44446
      13 -> 23        -0.11671
      13 -> 24        -0.12089
 
 Excited State   6:      Singlet-A'     6.1006 eV  203.23 nm  f=0.1587  <S**2>=0.000
      10 -> 14         0.11539
      12 -> 14         0.27157
      12 -> 19         0.10339
      12 -> 21         0.15974
      13 -> 15         0.31418
      13 -> 17         0.30834
      13 -> 18         0.26353
      13 -> 23        -0.19721
      13 -> 24        -0.16803
 
 Excited State   7:      Singlet-A"     6.1497 eV  201.61 nm  f=0.0152  <S**2>=0.000
       8 -> 24         0.11130
      12 -> 15        -0.29134
      12 -> 18         0.35646
      12 -> 23        -0.13370
      12 -> 24        -0.10283
      13 -> 19         0.21534
      13 -> 21         0.37690
      13 -> 22        -0.18306
 
 Excited State   8:      Singlet-A"     6.2045 eV  199.83 nm  f=0.0387  <S**2>=0.000
      12 -> 15         0.58124
      12 -> 24        -0.10443
      13 -> 14        -0.13701
      13 -> 19         0.17118
      13 -> 21         0.22755
      13 -> 22        -0.11036
 
 Excited State   9:      Singlet-A'     6.4479 eV  192.29 nm  f=0.0813  <S**2>=0.000
      11 -> 14        -0.21470
      12 -> 14        -0.16570
      13 -> 15        -0.17289
      13 -> 17         0.48567
      13 -> 18        -0.34599
      13 -> 23        -0.11178
 
 Excited State  10:      Singlet-A"     6.8512 eV  180.97 nm  f=0.0046  <S**2>=0.000
      12 -> 15         0.15470
      12 -> 17        -0.25066
      12 -> 18         0.50219
      12 -> 20         0.11038
      12 -> 24         0.16301
      13 -> 19        -0.26001
      13 -> 21        -0.10625
 
 Excited State  11:      Singlet-A'     7.0206 eV  176.60 nm  f=0.0009  <S**2>=0.000
       9 -> 15         0.23044
      10 -> 14        -0.30406
      11 -> 14         0.53205
      13 -> 17         0.18891
 
 Excited State  12:      Singlet-A"     7.1669 eV  172.99 nm  f=0.0048  <S**2>=0.000
       9 -> 14         0.43519
      10 -> 15        -0.17232
      11 -> 15         0.48127
      12 -> 17         0.10428
 
 Excited State  13:      Singlet-A"     7.2450 eV  171.13 nm  f=0.0002  <S**2>=0.000
       8 -> 18         0.15380
       9 -> 14        -0.11512
      12 -> 17         0.51675
      12 -> 18         0.12609
      12 -> 23        -0.19084
      12 -> 24         0.19578
      13 -> 21        -0.10787
      13 -> 22         0.25407
 
 Excited State  14:      Singlet-A'     7.2731 eV  170.47 nm  f=0.0062  <S**2>=0.000
       9 -> 15        -0.16608
      10 -> 14         0.47073
      11 -> 14         0.35291
      12 -> 22         0.12837
      13 -> 17         0.16927
      13 -> 24         0.18212
 
 Excited State  15:      Singlet-A'     7.3799 eV  168.00 nm  f=0.0116  <S**2>=0.000
       8 -> 16         0.13670
       9 -> 15         0.11035
      10 -> 14        -0.26367
      11 -> 14        -0.11957
      12 -> 19        -0.17262
      12 -> 21        -0.14745
      12 -> 22         0.20684
      13 -> 17         0.23328
      13 -> 18         0.26481
      13 -> 23         0.10297
      13 -> 24         0.36174
 SavETr:  write IOETrn=   770 NScale= 10 NData=  16 NLR=1 NState=   15 LETran=     280.
 Leave Link  914 at Thu Feb 25 13:43:09 2016, MaxMem=    33554432 cpu:         0.1
 (Enter /opt/g09/g09/l601.exe)
 Copying SCF densities to generalized density rwf, IOpCl= 0 IROHF=0.

 **********************************************************************

            Population analysis using the SCF density.

 **********************************************************************

 Orbital symmetries:
       Occupied  (A') (A') (A") (A') (A") (A') (A") (A') (A") (A')
                 (A') (A') (A")
       Virtual   (A') (A") (A') (A") (A") (A') (A") (A') (A') (A")
                 (A")
 The electronic state is 1-A'.
 Alpha  occ. eigenvalues --   -1.48364  -1.21513  -1.09891  -0.81455  -0.78747
 Alpha  occ. eigenvalues --   -0.67167  -0.56641  -0.56413  -0.51167  -0.50404
 Alpha  occ. eigenvalues --   -0.48309  -0.39338  -0.35232
 Alpha virt. eigenvalues --    0.02456   0.05976   0.08496   0.13584   0.13842
 Alpha virt. eigenvalues --    0.16024   0.17092   0.18050   0.18921   0.20563
 Alpha virt. eigenvalues --    0.20832
     Molecular Orbital Coefficients:
                           1         2         3         4         5
                           O         O         O         O         O
     Eigenvalues --    -1.48364  -1.21513  -1.09891  -0.81455  -0.78747
   1 1   C  1S          0.37575  -0.12113   0.50133   0.38960   0.20433
   2        1PX         0.01363   0.01965   0.00285  -0.02666   0.02620
   3        1PY         0.01190  -0.22630   0.08093  -0.03168  -0.34144
   4        1PZ        -0.16206  -0.05909   0.02858   0.13888  -0.04602
   5 2   H  1S          0.08594  -0.04255   0.20160   0.25647   0.13375
   6 3   C  1S          0.31998  -0.43134   0.33576  -0.27102  -0.32491
   7        1PX         0.00228   0.00373  -0.00045  -0.00753   0.00614
   8        1PY        -0.11571   0.03381  -0.12868  -0.26873  -0.06721
   9        1PZ        -0.06276   0.06374   0.16505   0.19143  -0.16827
  10 4   H  1S          0.07512  -0.14290   0.13259  -0.17899  -0.23196
  11 5   C  1S          0.31998  -0.43134  -0.33576  -0.27102   0.32491
  12        1PX         0.00228   0.00373   0.00045  -0.00753  -0.00614
  13        1PY        -0.11571   0.03381   0.12868  -0.26873   0.06721
  14        1PZ         0.06276  -0.06374   0.16505  -0.19143  -0.16827
  15 6   H  1S          0.07512  -0.14290  -0.13259  -0.17899   0.23196
  16 7   C  1S          0.37575  -0.12113  -0.50133   0.38960  -0.20433
  17        1PX         0.01363   0.01965  -0.00285  -0.02666  -0.02620
  18        1PY         0.01190  -0.22630  -0.08093  -0.03168   0.34144
  19        1PZ         0.16206   0.05909   0.02858  -0.13888  -0.04602
  20 8   H  1S          0.08594  -0.04255  -0.20160   0.25647  -0.13375
  21 9   O  1S          0.60427   0.65832   0.00000  -0.26071   0.00000
  22        1PX        -0.03208  -0.00841   0.00000  -0.05114   0.00000
  23        1PY         0.18102  -0.00394   0.00000   0.15322   0.00000
  24        1PZ         0.00000   0.00000   0.23038   0.00000   0.50741
                           6         7         8         9        10
                           O         O         O         O         O
     Eigenvalues --    -0.67167  -0.56641  -0.56413  -0.51167  -0.50404
   1 1   C  1S         -0.05603  -0.10952  -0.00177  -0.07103   0.06274
   2        1PX         0.02962   0.08594   0.36045  -0.02558   0.08385
   3        1PY         0.06461  -0.11931   0.10411  -0.29549  -0.32103
   4        1PZ        -0.36883  -0.37588   0.04438   0.28254  -0.07549
   5 2   H  1S         -0.25673  -0.29370  -0.02420   0.25382   0.08177
   6 3   C  1S         -0.06804   0.17245  -0.00706   0.00037  -0.03577
   7        1PX         0.01581   0.02224   0.23873  -0.01100   0.06916
   8        1PY        -0.23851   0.16332  -0.05939   0.40901   0.33917
   9        1PZ        -0.23140   0.05674   0.09026   0.07159   0.03245
  10 4   H  1S         -0.24077   0.22154  -0.00368   0.30023   0.21934
  11 5   C  1S         -0.06804  -0.17245  -0.00706  -0.00037  -0.03577
  12        1PX         0.01581  -0.02224   0.23873   0.01100   0.06916
  13        1PY        -0.23851  -0.16332  -0.05939  -0.40901   0.33917
  14        1PZ         0.23140   0.05674  -0.09026   0.07159  -0.03245
  15 6   H  1S         -0.24077  -0.22154  -0.00368  -0.30023   0.21934
  16 7   C  1S         -0.05603   0.10952  -0.00177   0.07103   0.06274
  17        1PX         0.02962  -0.08594   0.36045   0.02558   0.08385
  18        1PY         0.06461   0.11931   0.10411   0.29549  -0.32103
  19        1PZ         0.36883  -0.37588  -0.04438   0.28254   0.07549
  20 8   H  1S         -0.25673   0.29370  -0.02420  -0.25382   0.08177
  21 9   O  1S         -0.19976   0.00000   0.03929   0.00000  -0.19561
  22        1PX        -0.03573   0.00000   0.75599   0.00000  -0.00639
  23        1PY         0.43815   0.00000   0.05324   0.00000   0.60692
  24        1PZ         0.00000   0.50917   0.00000   0.01068   0.00000
                          11        12        13        14        15
                           O         O         O         V         V
     Eigenvalues --    -0.48309  -0.39338  -0.35232   0.02456   0.05976
   1 1   C  1S         -0.03165  -0.00269  -0.00819   0.02118   0.02218
   2        1PX        -0.04110  -0.21031   0.56392   0.55775  -0.40163
   3        1PY         0.21893  -0.01209   0.03265  -0.01096  -0.03724
   4        1PZ        -0.17198  -0.01251   0.09745   0.04843  -0.08407
   5 2   H  1S         -0.22415   0.01693   0.01932  -0.03393   0.01314
   6 3   C  1S         -0.03154  -0.01077  -0.01222   0.00840   0.01010
   7        1PX        -0.05025  -0.54385   0.41234  -0.37329   0.57182
   8        1PY        -0.05396   0.02175  -0.00298  -0.00502   0.01237
   9        1PZ         0.54768  -0.01173   0.01380  -0.00881  -0.02804
  10 4   H  1S          0.21270   0.01137  -0.01337  -0.01229   0.01409
  11 5   C  1S         -0.03154  -0.01077   0.01222   0.00840  -0.01010
  12        1PX        -0.05025  -0.54385  -0.41234  -0.37329  -0.57182
  13        1PY        -0.05396   0.02175   0.00298  -0.00502  -0.01237
  14        1PZ        -0.54768   0.01173   0.01380   0.00881  -0.02804
  15 6   H  1S          0.21270   0.01137   0.01337  -0.01229  -0.01409
  16 7   C  1S         -0.03165  -0.00269   0.00819   0.02118  -0.02218
  17        1PX        -0.04110  -0.21031  -0.56392   0.55775   0.40163
  18        1PY         0.21893  -0.01209  -0.03265  -0.01096   0.03724
  19        1PZ         0.17198   0.01251   0.09745  -0.04843  -0.08407
  20 8   H  1S         -0.22415   0.01693  -0.01932  -0.03393  -0.01314
  21 9   O  1S          0.03163   0.00802   0.00000  -0.02071   0.00000
  22        1PX        -0.13238   0.54590   0.00000  -0.29438   0.00000
  23        1PY         0.13165   0.13794   0.00000  -0.05716   0.00000
  24        1PZ         0.00000   0.00000  -0.02969   0.00000  -0.05203
                          16        17        18        19        20
                           V         V         V         V         V
     Eigenvalues --     0.08496   0.13584   0.13842   0.16024   0.17092
   1 1   C  1S         -0.29367  -0.25403  -0.27288   0.24416  -0.17721
   2        1PX         0.00251   0.02936  -0.08388  -0.04301   0.00818
   3        1PY         0.32236   0.01870   0.03101   0.11721   0.19936
   4        1PZ         0.20356  -0.15241   0.26546   0.22327  -0.19978
   5 2   H  1S          0.29594   0.38732  -0.00467  -0.34107   0.34011
   6 3   C  1S          0.05530   0.36133   0.07844   0.05864  -0.29481
   7        1PX        -0.00823  -0.01175   0.04022   0.00869   0.00237
   8        1PY         0.02267   0.03632  -0.11078   0.35240  -0.22644
   9        1PZ         0.01041  -0.28702   0.41261   0.05302   0.11673
  10 4   H  1S         -0.12937  -0.20670  -0.24104  -0.34825   0.33406
  11 5   C  1S          0.05530  -0.36133  -0.07844   0.05864   0.29481
  12        1PX        -0.00823   0.01175  -0.04022   0.00869  -0.00237
  13        1PY         0.02267  -0.03632   0.11078   0.35240   0.22644
  14        1PZ        -0.01041  -0.28702   0.41261  -0.05302   0.11673
  15 6   H  1S         -0.12937   0.20670   0.24104  -0.34825  -0.33406
  16 7   C  1S         -0.29367   0.25403   0.27288   0.24416   0.17721
  17        1PX         0.00251  -0.02936   0.08388  -0.04301  -0.00818
  18        1PY         0.32236  -0.01870  -0.03101   0.11721  -0.19936
  19        1PZ        -0.20356  -0.15241   0.26546  -0.22327  -0.19978
  20 8   H  1S          0.29594  -0.38732   0.00467  -0.34107  -0.34011
  21 9   O  1S          0.20155   0.00000   0.00000   0.04855   0.00000
  22        1PX        -0.13792   0.00000   0.00000  -0.01319   0.00000
  23        1PY         0.51090   0.00000   0.00000   0.10547   0.00000
  24        1PZ         0.00000   0.08818   0.44421   0.00000   0.13989
                          21        22        23        24
                           V         V         V         V
     Eigenvalues --     0.18050   0.18921   0.20563   0.20832
   1 1   C  1S          0.19000  -0.04314   0.12037   0.06659
   2        1PX         0.00159  -0.04501   0.03285  -0.05395
   3        1PY         0.37238  -0.15826   0.11305   0.46801
   4        1PZ         0.00547   0.42878  -0.30662   0.17822
   5 2   H  1S         -0.03356  -0.30843   0.14899  -0.04823
   6 3   C  1S         -0.35229   0.01897  -0.12326  -0.11353
   7        1PX         0.00138   0.01039  -0.01335   0.02003
   8        1PY         0.12276  -0.30760   0.37085   0.28706
   9        1PZ        -0.28590  -0.08819   0.33295  -0.24086
  10 4   H  1S          0.31932   0.22428  -0.27672   0.00471
  11 5   C  1S         -0.35229   0.01897   0.12326   0.11353
  12        1PX         0.00138   0.01039   0.01335  -0.02003
  13        1PY         0.12276  -0.30760  -0.37085  -0.28706
  14        1PZ         0.28590   0.08819   0.33295  -0.24086
  15 6   H  1S          0.31932   0.22428   0.27672  -0.00471
  16 7   C  1S          0.19000  -0.04314  -0.12037  -0.06659
  17        1PX         0.00159  -0.04501  -0.03285   0.05395
  18        1PY         0.37238  -0.15826  -0.11305  -0.46801
  19        1PZ        -0.00547  -0.42878  -0.30662   0.17822
  20 8   H  1S         -0.03356  -0.30843  -0.14899   0.04823
  21 9   O  1S          0.04187   0.08698   0.00000   0.00000
  22        1PX        -0.02484  -0.03807   0.00000   0.00000
  23        1PY        -0.00142   0.26232   0.00000   0.00000
  24        1PZ         0.00000   0.00000  -0.17381   0.41427
     Density Matrix:
                           1         2         3         4         5
   1 1   C  1S          1.25184
   2        1PX        -0.01650   1.02354
   3        1PY        -0.01341   0.01926   0.88851
   4        1PZ         0.09385   0.03133  -0.08574   0.91205
   5 2   H  1S          0.61269  -0.05416  -0.32158   0.66717   0.81655
   6 3   C  1S          0.30525  -0.00105   0.45321  -0.14465  -0.05723
   7        1PX        -0.00089   0.88789   0.02120   0.08354  -0.00929
   8        1PY        -0.48206   0.00726  -0.54195   0.20293   0.08684
   9        1PZ         0.15554   0.02108   0.25236   0.07710  -0.01911
  10 4   H  1S         -0.06021  -0.00018  -0.05335   0.04297   0.01114
  11 5   C  1S         -0.02725  -0.00250  -0.01489   0.02078   0.04901
  12        1PX         0.01512  -0.05163  -0.02651  -0.03013  -0.00678
  13        1PY         0.01858   0.00819  -0.03032  -0.01024   0.00340
  14        1PZ        -0.00773   0.00647  -0.07900  -0.02629   0.06927
  15 6   H  1S          0.04541   0.00734   0.04926  -0.01589  -0.01521
  16 7   C  1S          0.01109   0.00523  -0.03179  -0.00705   0.04321
  17        1PX         0.00523  -0.28341  -0.00875  -0.02585   0.01288
  18        1PY        -0.03179  -0.00875  -0.01449  -0.01600  -0.04685
  19        1PZ         0.00705   0.02585   0.01600   0.02213   0.06723
  20 8   H  1S          0.04321   0.01288  -0.04685  -0.06723  -0.02181
  21 9   O  1S          0.08713   0.03396  -0.14543  -0.17678  -0.03111
  22        1PX        -0.05594   0.32459   0.09202   0.12347   0.02751
  23        1PY         0.27416   0.09388  -0.27128  -0.47450  -0.07261
  24        1PZ         0.32579   0.08138  -0.43896  -0.41607  -0.06620
                           6         7         8         9        10
   6 3   C  1S          1.23430
   7        1PX         0.00003   1.06216
   8        1PY         0.06838  -0.00835   0.96126
   9        1PZ         0.03415   0.00541   0.03517   0.94316
  10 4   H  1S          0.58856  -0.02154   0.62587   0.45115   0.84070
  11 5   C  1S          0.24155   0.01345   0.04045  -0.44479  -0.04489
  12        1PX         0.01345   0.37944   0.00145  -0.01482  -0.00005
  13        1PY         0.04045   0.00145   0.10108  -0.07914  -0.00432
  14        1PZ         0.44479   0.01482   0.07914  -0.68678  -0.07196
  15 6   H  1S         -0.04489  -0.00005  -0.00432   0.07196  -0.00243
  16 7   C  1S         -0.02725   0.01512   0.01858   0.00773   0.04541
  17        1PX        -0.00250  -0.05163   0.00819  -0.00647   0.00734
  18        1PY        -0.01489  -0.02651  -0.03032   0.07900   0.04926
  19        1PZ        -0.02078   0.03013   0.01024  -0.02629   0.01589
  20 8   H  1S          0.04901  -0.00678   0.00340  -0.06927  -0.01521
  21 9   O  1S         -0.00144  -0.01491  -0.00034   0.02958   0.01970
  22        1PX         0.00569  -0.22096  -0.00473  -0.02184  -0.01917
  23        1PY        -0.07887  -0.04155   0.06365   0.02263   0.08748
  24        1PZ         0.00133   0.00395   0.04773  -0.03622   0.05851
                          11        12        13        14        15
  11 5   C  1S          1.23430
  12        1PX         0.00003   1.06216
  13        1PY         0.06838  -0.00835   0.96126
  14        1PZ        -0.03415  -0.00541  -0.03517   0.94316
  15 6   H  1S          0.58856  -0.02154   0.62587  -0.45115   0.84070
  16 7   C  1S          0.30525  -0.00089  -0.48206  -0.15554  -0.06021
  17        1PX        -0.00105   0.88789   0.00726  -0.02108  -0.00018
  18        1PY         0.45321   0.02120  -0.54195  -0.25236  -0.05335
  19        1PZ         0.14465  -0.08354  -0.20293   0.07710  -0.04297
  20 8   H  1S         -0.05723  -0.00929   0.08684   0.01911   0.01114
  21 9   O  1S         -0.00144  -0.01491  -0.00034  -0.02958   0.01970
  22        1PX         0.00569  -0.22096  -0.00473   0.02184  -0.01917
  23        1PY        -0.07887  -0.04155   0.06365  -0.02263   0.08748
  24        1PZ        -0.00133  -0.00395  -0.04773  -0.03622  -0.05851
                          16        17        18        19        20
  16 7   C  1S          1.25184
  17        1PX        -0.01650   1.02354
  18        1PY        -0.01341   0.01926   0.88851
  19        1PZ        -0.09385  -0.03133   0.08574   0.91205
  20 8   H  1S          0.61269  -0.05416  -0.32158  -0.66717   0.81655
  21 9   O  1S          0.08713   0.03396  -0.14543   0.17678  -0.03111
  22        1PX        -0.05594   0.32459   0.09202  -0.12347   0.02751
  23        1PY         0.27416   0.09388  -0.27128   0.47450  -0.07261
  24        1PZ        -0.32579  -0.08138   0.43896  -0.41607   0.06620
                          21        22        23        24
  21 9   O  1S          1.89455
  22        1PX         0.05338   1.78415
  23        1PY        -0.26406   0.12996   1.31156
  24        1PZ         0.00000   0.00000   0.00000   1.14159
    Full Mulliken population analysis:
                           1         2         3         4         5
   1 1   C  1S          1.25184
   2        1PX         0.00000   1.02354
   3        1PY         0.00000   0.00000   0.88851
   4        1PZ         0.00000   0.00000   0.00000   0.91205
   5 2   H  1S          0.00000   0.00000   0.00000   0.00000   0.81655
   6 3   C  1S          0.00000   0.00000   0.00000   0.00000   0.00000
   7        1PX         0.00000   0.00000   0.00000   0.00000   0.00000
   8        1PY         0.00000   0.00000   0.00000   0.00000   0.00000
   9        1PZ         0.00000   0.00000   0.00000   0.00000   0.00000
  10 4   H  1S          0.00000   0.00000   0.00000   0.00000   0.00000
  11 5   C  1S          0.00000   0.00000   0.00000   0.00000   0.00000
  12        1PX         0.00000   0.00000   0.00000   0.00000   0.00000
  13        1PY         0.00000   0.00000   0.00000   0.00000   0.00000
  14        1PZ         0.00000   0.00000   0.00000   0.00000   0.00000
  15 6   H  1S          0.00000   0.00000   0.00000   0.00000   0.00000
  16 7   C  1S          0.00000   0.00000   0.00000   0.00000   0.00000
  17        1PX         0.00000   0.00000   0.00000   0.00000   0.00000
  18        1PY         0.00000   0.00000   0.00000   0.00000   0.00000
  19        1PZ         0.00000   0.00000   0.00000   0.00000   0.00000
  20 8   H  1S          0.00000   0.00000   0.00000   0.00000   0.00000
  21 9   O  1S          0.00000   0.00000   0.00000   0.00000   0.00000
  22        1PX         0.00000   0.00000   0.00000   0.00000   0.00000
  23        1PY         0.00000   0.00000   0.00000   0.00000   0.00000
  24        1PZ         0.00000   0.00000   0.00000   0.00000   0.00000
                           6         7         8         9        10
   6 3   C  1S          1.23430
   7        1PX         0.00000   1.06216
   8        1PY         0.00000   0.00000   0.96126
   9        1PZ         0.00000   0.00000   0.00000   0.94316
  10 4   H  1S          0.00000   0.00000   0.00000   0.00000   0.84070
  11 5   C  1S          0.00000   0.00000   0.00000   0.00000   0.00000
  12        1PX         0.00000   0.00000   0.00000   0.00000   0.00000
  13        1PY         0.00000   0.00000   0.00000   0.00000   0.00000
  14        1PZ         0.00000   0.00000   0.00000   0.00000   0.00000
  15 6   H  1S          0.00000   0.00000   0.00000   0.00000   0.00000
  16 7   C  1S          0.00000   0.00000   0.00000   0.00000   0.00000
  17        1PX         0.00000   0.00000   0.00000   0.00000   0.00000
  18        1PY         0.00000   0.00000   0.00000   0.00000   0.00000
  19        1PZ         0.00000   0.00000   0.00000   0.00000   0.00000
  20 8   H  1S          0.00000   0.00000   0.00000   0.00000   0.00000
  21 9   O  1S          0.00000   0.00000   0.00000   0.00000   0.00000
  22        1PX         0.00000   0.00000   0.00000   0.00000   0.00000
  23        1PY         0.00000   0.00000   0.00000   0.00000   0.00000
  24        1PZ         0.00000   0.00000   0.00000   0.00000   0.00000
                          11        12        13        14        15
  11 5   C  1S          1.23430
  12        1PX         0.00000   1.06216
  13        1PY         0.00000   0.00000   0.96126
  14        1PZ         0.00000   0.00000   0.00000   0.94316
  15 6   H  1S          0.00000   0.00000   0.00000   0.00000   0.84070
  16 7   C  1S          0.00000   0.00000   0.00000   0.00000   0.00000
  17        1PX         0.00000   0.00000   0.00000   0.00000   0.00000
  18        1PY         0.00000   0.00000   0.00000   0.00000   0.00000
  19        1PZ         0.00000   0.00000   0.00000   0.00000   0.00000
  20 8   H  1S          0.00000   0.00000   0.00000   0.00000   0.00000
  21 9   O  1S          0.00000   0.00000   0.00000   0.00000   0.00000
  22        1PX         0.00000   0.00000   0.00000   0.00000   0.00000
  23        1PY         0.00000   0.00000   0.00000   0.00000   0.00000
  24        1PZ         0.00000   0.00000   0.00000   0.00000   0.00000
                          16        17        18        19        20
  16 7   C  1S          1.25184
  17        1PX         0.00000   1.02354
  18        1PY         0.00000   0.00000   0.88851
  19        1PZ         0.00000   0.00000   0.00000   0.91205
  20 8   H  1S          0.00000   0.00000   0.00000   0.00000   0.81655
  21 9   O  1S          0.00000   0.00000   0.00000   0.00000   0.00000
  22        1PX         0.00000   0.00000   0.00000   0.00000   0.00000
  23        1PY         0.00000   0.00000   0.00000   0.00000   0.00000
  24        1PZ         0.00000   0.00000   0.00000   0.00000   0.00000
                          21        22        23        24
  21 9   O  1S          1.89455
  22        1PX         0.00000   1.78415
  23        1PY         0.00000   0.00000   1.31156
  24        1PZ         0.00000   0.00000   0.00000   1.14159
     Gross orbital populations:
                           1
   1 1   C  1S          1.25184
   2        1PX         1.02354
   3        1PY         0.88851
   4        1PZ         0.91205
   5 2   H  1S          0.81655
   6 3   C  1S          1.23430
   7        1PX         1.06216
   8        1PY         0.96126
   9        1PZ         0.94316
  10 4   H  1S          0.84070
  11 5   C  1S          1.23430
  12        1PX         1.06216
  13        1PY         0.96126
  14        1PZ         0.94316
  15 6   H  1S          0.84070
  16 7   C  1S          1.25184
  17        1PX         1.02354
  18        1PY         0.88851
  19        1PZ         0.91205
  20 8   H  1S          0.81655
  21 9   O  1S          1.89455
  22        1PX         1.78415
  23        1PY         1.31156
  24        1PZ         1.14159
          Condensed to atoms (all electrons):
               1          2          3          4          5          6
     1  C    4.075945   0.000000   0.000000   0.000000   0.000000   0.000000
     2  H    0.000000   0.816549   0.000000   0.000000   0.000000   0.000000
     3  C    0.000000   0.000000   4.200877   0.000000   0.000000   0.000000
     4  H    0.000000   0.000000   0.000000   0.840705   0.000000   0.000000
     5  C    0.000000   0.000000   0.000000   0.000000   4.200877   0.000000
     6  H    0.000000   0.000000   0.000000   0.000000   0.000000   0.840705
     7  C    0.000000   0.000000   0.000000   0.000000   0.000000   0.000000
     8  H    0.000000   0.000000   0.000000   0.000000   0.000000   0.000000
     9  O    0.000000   0.000000   0.000000   0.000000   0.000000   0.000000
               7          8          9
     1  C    0.000000   0.000000   0.000000
     2  H    0.000000   0.000000   0.000000
     3  C    0.000000   0.000000   0.000000
     4  H    0.000000   0.000000   0.000000
     5  C    0.000000   0.000000   0.000000
     6  H    0.000000   0.000000   0.000000
     7  C    4.075945   0.000000   0.000000
     8  H    0.000000   0.816549   0.000000
     9  O    0.000000   0.000000   6.131848
 Mulliken charges:
               1
     1  C   -0.075945
     2  H    0.183451
     3  C   -0.200877
     4  H    0.159295
     5  C   -0.200877
     6  H    0.159295
     7  C   -0.075945
     8  H    0.183451
     9  O   -0.131848
 Sum of Mulliken charges =   0.00000
 Mulliken charges with hydrogens summed into heavy atoms:
               1
     1  C    0.107506
     3  C   -0.041581
     5  C   -0.041581
     7  C    0.107506
     9  O   -0.131848
 Charge=              0.0000 electrons
 Dipole moment (field-independent basis, Debye):
    X=             -0.3464    Y=              0.9908    Z=              0.0000  Tot=              1.0496
 N-N= 1.018746654697D+02 E-N=-1.684464733011D+02  KE=-1.635359412157D+01
 Symmetry A'   KE=-1.051643587599D+01
 Symmetry A"   KE=-5.837158245580D+00
 Orbital energies and kinetic energies (alpha):
                                 1                 2
   1         O                -1.483643         -1.263440
   2         O                -1.215134         -1.028610
   3         O                -1.098914         -0.964658
   4         O                -0.814547         -0.734502
   5         O                -0.787466         -0.688731
   6         O                -0.671665         -0.596433
   7         O                -0.566409         -0.507309
   8         O                -0.564131         -0.464563
   9         O                -0.511671         -0.440801
  10         O                -0.504039         -0.418790
  11         O                -0.483093         -0.411860
  12         O                -0.393379         -0.340020
  13         O                -0.352319         -0.317081
  14         V                 0.024558         -0.207603
  15         V                 0.059762         -0.193906
  16         V                 0.084964         -0.212077
  17         V                 0.135844         -0.237542
  18         V                 0.138422         -0.154099
  19         V                 0.160244         -0.205782
  20         V                 0.170922         -0.212088
  21         V                 0.180504         -0.158809
  22         V                 0.189214         -0.145382
  23         V                 0.205627         -0.128299
  24         V                 0.208321         -0.069857
 Total kinetic energy from orbitals=-1.635359412157D+01
 Leave Link  601 at Thu Feb 25 13:43:09 2016, MaxMem=    33554432 cpu:         0.0
 (Enter /opt/g09/g09/l9999.exe)
 1\1\GINC-LINUX-CBNE\SP\RAM1-Full\STO-3G\C4H4O1\DUSTIN\25-Feb-2016\0\\#
 P AM1(Input,print) CIS(Singlets,NStates=15) pop(full)\\Title Card Requ
 ired\\0,1\C,0,-2.32075615,1.72243141,0.152225\H,0,-3.25598802,2.224357
 97,0.0169066\C,0,-2.06018487,0.47582706,-0.28307993\H,0,-2.6879698,-0.
 13079484,-0.90178498\C,0,-0.71774496,0.09580013,0.28699331\H,0,-0.2050
 1172,-0.83368734,0.15261451\C,0,-0.29822969,1.149881,1.0111001\H,0,0.5
 6711212,1.14208903,1.64040355\O,0,-1.17147089,2.30076581,0.83301386\\V
 ersion=ES64L-G09RevD.01\State=1-A'\HF=0.0282213\RMSD=2.568e-09\PG=CS [
 SG(O1),X(C4H4)]\\@


 YOU SHOULDN'T LET PEOPLE DRIVE YOU CRAZY
 WHEN YOU KNOW IT'S WITHIN WALKING DISTANCE.
 Job cpu time:       0 days  0 hours  0 minutes  0.3 seconds.
 File lengths (MBytes):  RWF=      7 Int=      0 D2E=      0 Chk=      2 Scr=      1
 Normal termination of Gaussian 09 at Thu Feb 25 13:43:09 2016.
 Initial command:
 /opt/g09/g09/l1.exe "/opt/g09/scratch/Gau-12027.inp" -scrdir="/opt/g09/scratch/"
 Entering Link 1 = /opt/g09/g09/l1.exe PID=     12029.
  
 Copyright (c) 1988,1990,1992,1993,1995,1998,2003,2009,2013,
            Gaussian, Inc.  All Rights Reserved.
  
 This is part of the Gaussian(R) 09 program.  It is based on
 the Gaussian(R) 03 system (copyright 2003, Gaussian, Inc.),
 the Gaussian(R) 98 system (copyright 1998, Gaussian, Inc.),
 the Gaussian(R) 94 system (copyright 1995, Gaussian, Inc.),
 the Gaussian 92(TM) system (copyright 1992, Gaussian, Inc.),
 the Gaussian 90(TM) system (copyright 1990, Gaussian, Inc.),
 the Gaussian 88(TM) system (copyright 1988, Gaussian, Inc.),
 the Gaussian 86(TM) system (copyright 1986, Carnegie Mellon
 University), and the Gaussian 82(TM) system (copyright 1983,
 Carnegie Mellon University). Gaussian is a federally registered
 trademark of Gaussian, Inc.
  
 This software contains proprietary and confidential information,
 including trade secrets, belonging to Gaussian, Inc.
  
 This software is provided under written license and may be
 used, copied, transmitted, or stored only in accord with that
 written license.
  
 The following legend is applicable only to US Government
 contracts under FAR:
  
                    RESTRICTED RIGHTS LEGEND
  
 Use, reproduction and disclosure by the US Government is
 subject to restrictions as set forth in subparagraphs (a)
 and (c) of the Commercial Computer Software - Restricted
 Rights clause in FAR 52.227-19.
  
 Gaussian, Inc.
 340 Quinnipiac St., Bldg. 40, Wallingford CT 06492
  
  
 ---------------------------------------------------------------
 Warning -- This program may not be used in any manner that
 competes with the business of Gaussian, Inc. or will provide
 assistance to any competitor of Gaussian, Inc.  The licensee
 of this program is prohibited from giving any competitor of
 Gaussian, Inc. access to this program.  By using this program,
 the user acknowledges that Gaussian, Inc. is engaged in the
 business of creating and licensing software in the field of
 computational chemistry and represents and warrants to the
 licensee that it is not a competitor of Gaussian, Inc. and that
 it will not use this program in any manner prohibited above.
 ---------------------------------------------------------------
  

 Cite this work as:
 Gaussian 09, Revision D.01,
 M. J. Frisch, G. W. Trucks, H. B. Schlegel, G. E. Scuseria, 
 M. A. Robb, J. R. Cheeseman, G. Scalmani, V. Barone, B. Mennucci, 
 G. A. Petersson, H. Nakatsuji, M. Caricato, X. Li, H. P. Hratchian, 
 A. F. Izmaylov, J. Bloino, G. Zheng, J. L. Sonnenberg, M. Hada, 
 M. Ehara, K. Toyota, R. Fukuda, J. Hasegawa, M. Ishida, T. Nakajima, 
 Y. Honda, O. Kitao, H. Nakai, T. Vreven, J. A. Montgomery, Jr., 
 J. E. Peralta, F. Ogliaro, M. Bearpark, J. J. Heyd, E. Brothers, 
 K. N. Kudin, V. N. Staroverov, T. Keith, R. Kobayashi, J. Normand, 
 K. Raghavachari, A. Rendell, J. C. Burant, S. S. Iyengar, J. Tomasi, 
 M. Cossi, N. Rega, J. M. Millam, M. Klene, J. E. Knox, J. B. Cross, 
 V. Bakken, C. Adamo, J. Jaramillo, R. Gomperts, R. E. Stratmann, 
 O. Yazyev, A. J. Austin, R. Cammi, C. Pomelli, J. W. Ochterski, 
 R. L. Martin, K. Morokuma, V. G. Zakrzewski, G. A. Voth, 
 P. Salvador, J. J. Dannenberg, S. Dapprich, A. D. Daniels, 
 O. Farkas, J. B. Foresman, J. V. Ortiz, J. Cioslowski, 
 and D. J. Fox, Gaussian, Inc., Wallingford CT, 2013.
 
 ******************************************
 Gaussian 09:  ES64L-G09RevD.01 24-Apr-2013
                25-Feb-2016 
 ******************************************
 -------------------
 #P B3LYP/3-21G freq
 -------------------
 1/10=4,30=1,38=1/1,3;
 2/12=2,17=6,18=5,40=1/2;
 3/5=5,11=2,16=1,25=1,30=1,71=2,74=-5,140=1/1,2,3;
 4//1;
 5/5=2,38=5,98=1/2;
 8/6=4,10=90,11=11/1;
 11/6=1,8=1,9=11,15=111,16=1/1,2,10;
 10/6=1/2;
 6/7=2,8=2,9=2,10=2,18=1,28=1/1;
 7/8=1,10=1,25=1/1,2,3,16;
 1/10=4,30=1/3;
 99//99;
 Leave Link    1 at Thu Feb 25 13:43:09 2016, MaxMem=           0 cpu:         0.0
 (Enter /opt/g09/g09/l101.exe)
 -------------------
 Title Card Required
 -------------------
 Symbolic Z-matrix:
 Charge =  0 Multiplicity = 1
 C                    -2.32076   1.72243   0.15223 
 H                    -3.25599   2.22436   0.01691 
 C                    -2.06018   0.47583  -0.28308 
 H                    -2.68797  -0.13079  -0.90178 
 C                    -0.71774   0.0958    0.28699 
 H                    -0.20501  -0.83369   0.15261 
 C                    -0.29823   1.14988   1.0111 
 H                     0.56711   1.14209   1.6404 
[...]
                                                                                                      X   X    X                     
                                                                                                          X    X                     
                                                                                                          X                          
                                                                                                          X                          
                                                                                                          X                          
                                                                                                          X                          
                                                                                                          X                          
                                                                                                          X                          
                                                                                                          X                          
                                                                                                          X                          
                                                                                                          X                          
                                                                                                          X                          
                                                                                                          X                          
 
 ***** Axes restored to original set *****
 -------------------------------------------------------------------
 Center     Atomic                   Forces (Hartrees/Bohr)
 Number     Number              X              Y              Z
 -------------------------------------------------------------------
      1        6           0.018272208    0.002012260   -0.007905545
      2        1           0.004182106    0.019616681    0.003403687
      3        6           0.034852833   -0.010576407    0.015957580
      4        1          -0.003917832   -0.004383992   -0.000230291
      5        6          -0.035951466    0.009467349   -0.014109789
      6        1           0.000484617   -0.005630267    0.001639229
      7        6          -0.004489845    0.008455894   -0.017571555
      8        1           0.004064252    0.019650044    0.003353640
      9        8          -0.017496873   -0.038611563    0.015463044
 -------------------------------------------------------------------
 Cartesian Forces:  Max     0.038611563 RMS     0.015981948
 Z-matrix is all fixed cartesians, so copy forces.
 Force constants in Cartesian coordinates: 
                1             2             3             4             5 
      1  0.602354D+00
      2 -0.274918D+00  0.685639D+00
      3  0.974402D-01  0.132074D+00  0.219826D+00
      4 -0.293013D+00  0.149636D+00 -0.394078D-01  0.299684D+00
      5  0.146078D+00 -0.131978D+00  0.836470D-02 -0.155398D+00  0.134532D+00
      6 -0.392837D-01  0.862204D-02 -0.329044D-01  0.427498D-01 -0.878918D-02
      7 -0.103861D+00  0.660077D-01  0.152099D-01  0.837854D-03  0.256316D-01
      8  0.828205D-01 -0.410036D+00 -0.119052D+00 -0.118859D-02 -0.571410D-02
      9  0.161140D-01 -0.128095D+00 -0.112301D+00 -0.294631D-02  0.614482D-02
     10  0.724333D-02  0.581814D-02  0.582158D-02 -0.487732D-03 -0.124718D-02
     11 -0.214275D-01 -0.752494D-02 -0.136570D-01  0.363199D-03 -0.337472D-03
     12 -0.659196D-02  0.176499D-02 -0.182820D-02  0.121639D-02  0.940729D-03
     13 -0.220905D-01  0.669390D-01  0.590843D-02  0.228700D-02  0.303245D-02
     14  0.250523D-01 -0.254261D-01 -0.257901D-02  0.639614D-03 -0.319930D-02
     15 -0.653454D-02  0.185523D-01  0.129646D-01 -0.101983D-02 -0.300022D-02
     16 -0.416519D-02  0.619383D-03 -0.377057D-02  0.950127D-04  0.117479D-02
     17 -0.157549D-02  0.340740D-04 -0.226475D-02  0.706992D-04  0.159884D-03
     18 -0.543675D-02 -0.836286D-03  0.480306D-03  0.133055D-04  0.459517D-03
     19 -0.893046D-01  0.188883D-01 -0.502126D-01  0.125475D-02 -0.208304D-02
     20  0.356480D-01 -0.982280D-02  0.116912D-01 -0.534941D-02 -0.523587D-02
     21 -0.382996D-01  0.120166D-02 -0.730334D-02 -0.474899D-03 -0.243741D-02
     22  0.134862D-02  0.193072D-02  0.876890D-03  0.153749D-03  0.142939D-03
     23 -0.667153D-03 -0.770511D-02 -0.220753D-02  0.856197D-03  0.140876D-02
     24  0.256469D-02 -0.590017D-03  0.103708D-02 -0.241467D-03 -0.328595D-03
     25 -0.985123D-01 -0.349210D-01 -0.318659D-01 -0.108117D-01 -0.173317D-01
     26  0.898911D-02 -0.931813D-01 -0.123687D-01  0.103707D-01  0.103637D-01
     27 -0.199725D-01 -0.326933D-01 -0.799710D-01  0.110866D-03 -0.135437D-02
                6             7             8             9            10 
      6  0.289272D-01
      7  0.945049D-02  0.446307D+00
      8 -0.617619D-02  0.419867D-01  0.708993D+00
      9  0.874863D-02  0.185610D+00  0.290815D+00  0.353407D+00
     10  0.101005D-02 -0.161725D+00 -0.105982D+00 -0.119200D+00  0.160952D+00
     11  0.166417D-02 -0.102657D+00 -0.157000D+00 -0.115324D+00  0.111938D+00
     12 -0.227689D-02 -0.117388D+00 -0.119520D+00 -0.145543D+00  0.125800D+00
     13 -0.258849D-02 -0.122349D+00  0.366089D-03 -0.286321D-01 -0.555981D-02
     14 -0.359258D-02  0.251280D-01 -0.105803D+00 -0.321865D-02 -0.168403D-01
     15  0.306373D-02 -0.238869D-01 -0.150772D-01 -0.813702D-01 -0.898316D-02
     16  0.342131D-03 -0.366242D-02  0.194711D-01  0.694312D-02 -0.377002D-04
     17 -0.126404D-03 -0.409448D-02  0.249481D-02 -0.338204D-03  0.361047D-03
     18  0.785969D-03 -0.213859D-02  0.127730D-01  0.245359D-02  0.777417D-03
     19 -0.171706D-02 -0.361731D-01 -0.308768D-02 -0.285110D-01 -0.365823D-02
     20 -0.248073D-02 -0.448541D-01  0.153157D-01 -0.243929D-01  0.277949D-02
     21 -0.133830D-02 -0.408738D-01 -0.297828D-02 -0.136946D-01 -0.297503D-02
     22 -0.144624D-02  0.113389D-02  0.786874D-03 -0.308140D-02  0.133267D-03
     23  0.315349D-03 -0.161964D-02 -0.183163D-02 -0.453077D-02 -0.974123D-03
     24  0.163672D-02 -0.152186D-02 -0.397062D-02  0.284917D-02 -0.716512D-03
     25 -0.851700D-02 -0.205083D-01 -0.351730D-01 -0.262969D-01  0.313911D-02
     26  0.105635D-01 -0.552861D-02 -0.464182D-01 -0.210606D-01  0.414671D-02
     27 -0.664268D-02 -0.244611D-01 -0.368130D-01 -0.145494D-01 -0.153463D-02
               11            12            13            14            15 
     11  0.159402D+00
     12  0.123239D+00  0.144523D+00
     13  0.708447D-02  0.337997D-03  0.405718D+00
     14  0.976152D-02 -0.357596D-02 -0.121169D+00  0.804620D+00
     15  0.868941D-02 -0.291573D-02  0.112189D+00  0.237435D+00  0.298368D+00
     16 -0.800419D-03  0.143260D-03 -0.120893D+00  0.142615D+00  0.105633D-01
     17 -0.160958D-03  0.599760D-03  0.137759D+00 -0.298706D+00 -0.450554D-01
     18 -0.729834D-04 -0.688474D-03  0.773161D-02 -0.444636D-01 -0.446687D-01
     19  0.499102D-02 -0.129774D-02 -0.121504D+00 -0.954137D-01 -0.770352D-01
     20 -0.247694D-02 -0.102974D-02 -0.774913D-01 -0.317543D+00 -0.164784D+00
     21  0.359488D-03  0.248436D-02 -0.753913D-01 -0.171213D+00 -0.187150D+00
     22  0.146122D-03 -0.376916D-03 -0.753345D-03  0.382294D-02 -0.370228D-02
     23  0.743795D-03 -0.337963D-03 -0.212604D-01  0.626924D-02 -0.137454D-01
     24  0.209912D-03  0.163803D-03 -0.149412D-01  0.266567D-02 -0.164351D-02
     25  0.362154D-03 -0.184257D-02 -0.148543D-01  0.361652D-01 -0.158997D-02
     26 -0.240640D-02 -0.208091D-02  0.473921D-02 -0.699729D-01 -0.230148D-01
     27 -0.510838D-02  0.608066D-02 -0.461348D-02 -0.114578D-01  0.335127D-02
               16            17            18            19            20 
     16  0.119047D+00
     17 -0.147310D+00  0.309539D+00
     18 -0.105333D-01  0.467047D-01  0.362910D-01
     19  0.755340D-02  0.146819D-01  0.114604D-01  0.587483D+00
     20 -0.127914D-01 -0.125038D-01 -0.112108D-01  0.603815D-01  0.496993D+00
     21 -0.110488D-02  0.367510D-02  0.284057D-02  0.333909D+00  0.205731D+00
     22 -0.944969D-03 -0.148873D-02  0.124716D-02 -0.256612D+00 -0.550587D-02
     23  0.108961D-03 -0.160478D-03  0.145294D-02 -0.276922D-02 -0.488393D-01
     24  0.144504D-02  0.699629D-03 -0.199665D-02 -0.172702D+00 -0.151148D-01
     25  0.300828D-02  0.159569D-02 -0.312129D-02 -0.890396D-01  0.471831D-01
     26 -0.308716D-02 -0.697303D-03 -0.480654D-02  0.441088D-02 -0.115887D+00
     27 -0.402807D-02 -0.389443D-02  0.450239D-02 -0.138945D-01  0.159072D-02
               21            22            23            24            25 
     21  0.423343D+00
     22 -0.172030D+00  0.264463D+00
     23 -0.129246D-01  0.496991D-02  0.465583D-01
     24 -0.152444D+00  0.180324D+00  0.161323D-01  0.152122D+00
     25 -0.275963D-02 -0.892249D-02  0.213555D-01  0.578863D-02  0.236501D+00
     26 -0.214137D-01 -0.480491D-02  0.355642D-02  0.296541D-03 -0.192359D-01
     27 -0.667381D-01 -0.181131D-02  0.158456D-01 -0.172468D-02  0.702047D-01
               26            27 
     26  0.314643D+00
     27  0.738851D-01  0.155692D+00
 Leave Link  716 at Thu Feb 25 13:43:21 2016, MaxMem=    33554432 cpu:         0.0
 (Enter /opt/g09/g09/l103.exe)

 GradGradGradGradGradGradGradGradGradGradGradGradGradGradGradGradGradGrad
 Berny optimization.
 Search for a local minimum.
 Step number   1 out of a maximum of    2
 All quantities printed in internal units (Hartrees-Bohrs-Radians)
 Second derivative matrix not updated -- analytic derivatives used.
 ITU=  0
     Eigenvalues ---    0.02014   0.02229   0.04407   0.05105   0.05178
     Eigenvalues ---    0.05281   0.06180   0.14112   0.17237   0.17636
     Eigenvalues ---    0.21720   0.23330   0.26265   0.32444   0.48009
     Eigenvalues ---    0.58854   0.68206   0.97746   0.99840   1.41165
     Eigenvalues ---    1.43615
 Quadratic step=7.818D-01 exceeds max=3.000D-01 adjusted using Lamda=-8.673D-02.
 Angle between NR and scaled steps=  21.98 degrees.
 Angle between quadratic step and forces=  38.08 degrees.
 ClnCor:  largest displacement from symmetrization is 2.64D-10 for atom     8.
 Linear search not attempted -- first point.
 ClnCor:  largest displacement from symmetrization is 3.25D-15 for atom     6.
 TrRot=  0.002611 -0.004625 -0.009230 -1.844827  0.008999  1.848503
 Variable       Old X    -DE/DX   Delta X   Delta X   Delta X     New X
                                 (Linear)    (Quad)   (Total)
    X1       -4.38559   0.01827   0.00000   0.05029   0.04028  -4.34531
    Y1        3.25492   0.00201   0.00000   0.01358  -0.00925   3.24567
    Z1        0.28766  -0.00791   0.00000  -0.03721  -0.02886   0.25880
    X2       -6.15293   0.00418   0.00000   0.09410   0.08069  -6.07224
    Y2        4.20343   0.01962   0.00000   0.13008   0.10270   4.30613
    Z2        0.03195   0.00340   0.00000   0.00785   0.02117   0.05312
    X3       -3.89319   0.03485   0.00000   0.05044   0.05112  -3.84207
    Y3        0.89918  -0.01058   0.00000  -0.02888  -0.04321   0.85597
    Z3       -0.53494   0.01596   0.00000   0.02529   0.01414  -0.52081
    X4       -5.07953  -0.00392   0.00000   0.00554   0.01324  -5.06629
    Y4       -0.24717  -0.00438   0.00000  -0.01615  -0.02490  -0.27207
    Z4       -1.70413  -0.00023   0.00000   0.03427   0.01032  -1.69381
    X5       -1.35634  -0.03595   0.00000  -0.05960  -0.05892  -1.41527
    Y5        0.18104   0.00947   0.00000   0.00228  -0.01206   0.16897
    Z5        0.54234  -0.01411   0.00000  -0.02144  -0.03259   0.50974
    X6       -0.38742   0.00048   0.00000  -0.03360  -0.02590  -0.41332
    Y6       -1.57544  -0.00563   0.00000  -0.00507  -0.01382  -1.58926
    Z6        0.28840   0.00164   0.00000   0.01765  -0.00630   0.28210
    X7       -0.56357  -0.00449   0.00000   0.00167  -0.00834  -0.57191
    Y7        2.17296   0.00846   0.00000   0.02734   0.00451   2.17747
    Z7        1.91070  -0.01757   0.00000  -0.05786  -0.04951   1.86119
    X8        1.07169   0.00406   0.00000  -0.00207  -0.01547   1.05621
    Y8        2.15824   0.01965   0.00000   0.15730   0.12992   2.28816
    Z8        3.09991   0.00335   0.00000  -0.03299  -0.01967   3.08025
    X9       -2.21376  -0.01750   0.00000  -0.05967  -0.07668  -2.29044
    Y9        4.34782  -0.03861   0.00000  -0.10650  -0.13389   4.21393
    Z9        1.57417   0.01546   0.00000   0.06953   0.09133   1.66549
         Item               Value     Threshold  Converged?
 Maximum Force            0.038612     0.000450     NO 
 RMS     Force            0.015982     0.000300     NO 
 Maximum Displacement     0.133888     0.001800     NO 
 RMS     Displacement     0.055580     0.001200     NO 
 Predicted change in Energy=-1.373198D-02
 GradGradGradGradGradGradGradGradGradGradGradGradGradGradGradGradGradGrad

 Leave Link  103 at Thu Feb 25 13:43:21 2016, MaxMem=    33554432 cpu:         0.0
 (Enter /opt/g09/g09/l9999.exe)
 1\1\GINC-LINUX-CBNE\Freq\RB3LYP\3-21G\C4H4O1\DUSTIN\25-Feb-2016\0\\#P 
 B3LYP/3-21G freq\\Title Card Required\\0,1\C,-2.32075615,1.72243141,0.
 152225\H,-3.25598802,2.22435797,0.0169066\C,-2.06018487,0.47582706,-0.
 28307993\H,-2.6879698,-0.13079484,-0.90178498\C,-0.7177449198,0.095800
 1459,0.2869933392\H,-0.2050116452,-0.8336873048,0.1526145649\C,-0.2982
 297003,1.1498810435,1.011100114\H,0.5671121061,1.1420891183,1.64040356
 68\O,-1.1714709143,2.3007658169,0.8330138497\\Version=ES64L-G09RevD.01
 \State=1-A'\HF=-228.7357549\RMSD=2.454e-09\RMSF=1.598e-02\ZeroPoint=0.
 0685777\Thermal=0.0724848\Dipole=-0.100025,-0.4768962,-0.082368\Dipole
 Deriv=0.1232802,0.0142746,0.0696228,0.0770665,0.226527,0.1893853,0.096
 342,0.1404951,-0.0168067,0.0447682,0.0639221,-0.0408068,0.0331889,0.08
 47772,-0.0390427,-0.0481296,-0.0347169,0.1694321,-0.032001,0.0589431,0
 .1040725,-0.0119997,-0.1706287,0.0226993,0.0972891,0.0432864,-0.117192
 4,0.0485196,-0.0290423,-0.075722,-0.0268717,0.0928742,-0.0493522,-0.07
 03166,-0.0553531,0.1100281,-0.0513869,-0.1406127,0.0284322,-0.0773913,
 -0.094072,0.0140128,0.0300683,-0.024757,-0.1743631,0.0740862,0.0770176
 ,-0.0233229,0.0724558,0.0326829,-0.0189324,-0.0303225,-0.0185626,0.144
 6528,0.0222084,-0.0366303,0.1085561,-0.1093012,0.3017954,0.0870716,0.0
 752513,0.1126983,0.0089967,0.0710118,0.0098311,-0.0865519,0.0332885,0.
 0979583,-0.0228957,-0.0840794,-0.0443551,0.1300074,-0.3004866,-0.01770
 33,-0.0842799,0.0095642,-0.5719143,-0.182946,-0.0661026,-0.118735,-0.2
 547549\Polar=39.719807,-5.7359873,38.9451713,12.3966159,8.3992491,23.0
 148108\PG=CS [SG(O1),X(C4H4)]\NImag=0\\0.60235441,-0.27491818,0.685639
 47,0.09744021,0.13207351,0.21982608,-0.29301316,0.14963589,-0.03940784
 ,0.29968425,0.14607840,-0.13197756,0.00836470,-0.15539826,0.13453200,-
 0.03928366,0.00862204,-0.03290441,0.04274980,-0.00878918,0.02892722,-0
 .10386060,0.06600773,0.01520988,0.00083785,0.02563164,0.00945049,0.446
 30679,0.08282049,-0.41003579,-0.11905243,-0.00118859,-0.00571410,-0.00
 617619,0.04198666,0.70899265,0.01611403,-0.12809484,-0.11230112,-0.002
 94631,0.00614482,0.00874863,0.18561028,0.29081475,0.35340669,0.0072433
 3,0.00581814,0.00582158,-0.00048773,-0.00124718,0.00101005,-0.16172465
 ,-0.10598194,-0.11919973,0.16095242,-0.02142753,-0.00752494,-0.0136570
 1,0.00036320,-0.00033747,0.00166417,-0.10265716,-0.15700026,-0.1153236
 9,0.11193814,0.15940166,-0.00659196,0.00176499,-0.00182820,0.00121639,
 0.00094073,-0.00227689,-0.11738846,-0.11952000,-0.14554279,0.12580001,
 0.12323910,0.14452325,-0.02209047,0.06693905,0.00590843,0.00228700,0.0
 0303245,-0.00258849,-0.12234947,0.00036609,-0.02863208,-0.00555981,0.0
 0708447,0.00033800,0.40571799,0.02505230,-0.02542607,-0.00257901,0.000
 63961,-0.00319930,-0.00359258,0.02512799,-0.10580314,-0.00321865,-0.01
 684029,0.00976152,-0.00357596,-0.12116895,0.80461974,-0.00653454,0.018
 55230,0.01296460,-0.00101983,-0.00300022,0.00306373,-0.02388687,-0.015
 07721,-0.08137020,-0.00898316,0.00868941,-0.00291573,0.11218859,0.2374
 3534,0.29836841,-0.00416519,0.00061938,-0.00377057,0.00009501,0.001174
 79,0.00034213,-0.00366242,0.01947108,0.00694312,-0.00003770,-0.0008004
 2,0.00014326,-0.12089347,0.14261482,0.01056326,0.11904704,-0.00157549,
 0.00003407,-0.00226475,0.00007070,0.00015988,-0.00012640,-0.00409448,0
 .00249481,-0.00033820,0.00036105,-0.00016096,0.00059976,0.13775937,-0.
 29870556,-0.04505541,-0.14731004,0.30953931,-0.00543675,-0.00083629,0.
 00048031,0.00001331,0.00045952,0.00078597,-0.00213859,0.01277301,0.002
 45359,0.00077742,-0.00007298,-0.00068847,0.00773161,-0.04446360,-0.044
 66868,-0.01053330,0.04670471,0.03629098,-0.08930459,0.01888828,-0.0502
 1263,0.00125475,-0.00208304,-0.00171706,-0.03617308,-0.00308768,-0.028
 51102,-0.00365823,0.00499102,-0.00129774,-0.12150412,-0.09541366,-0.07
 703520,0.00755340,0.01468193,0.01146044,0.58748335,0.03564804,-0.00982
 280,0.01169119,-0.00534941,-0.00523587,-0.00248073,-0.04485412,0.01531
 570,-0.02439286,0.00277949,-0.00247694,-0.00102974,-0.07749126,-0.3175
 4350,-0.16478404,-0.01279141,-0.01250378,-0.01121077,0.06038148,0.4969
 9345,-0.03829956,0.00120166,-0.00730334,-0.00047490,-0.00243741,-0.001
 33830,-0.04087380,-0.00297828,-0.01369456,-0.00297503,0.00035949,0.002
 48436,-0.07539132,-0.17121339,-0.18714990,-0.00110488,0.00367510,0.002
 84057,0.33390930,0.20573107,0.42334316,0.00134862,0.00193072,0.0008768
 9,0.00015375,0.00014294,-0.00144624,0.00113389,0.00078687,-0.00308140,
 0.00013327,0.00014612,-0.00037692,-0.00075334,0.00382294,-0.00370228,-
 0.00094497,-0.00148873,0.00124716,-0.25661190,-0.00550587,-0.17203018,
 0.26446318,-0.00066715,-0.00770511,-0.00220753,0.00085620,0.00140876,0
 .00031535,-0.00161964,-0.00183163,-0.00453077,-0.00097412,0.00074380,-
 0.00033796,-0.02126043,0.00626924,-0.01374539,0.00010896,-0.00016048,0
 .00145294,-0.00276922,-0.04883934,-0.01292456,0.00496991,0.04655835,0.
 00256469,-0.00059002,0.00103708,-0.00024147,-0.00032860,0.00163672,-0.
 00152186,-0.00397062,0.00284917,-0.00071651,0.00020991,0.00016380,-0.0
 1494124,0.00266567,-0.00164351,0.00144504,0.00069963,-0.00199665,-0.17
 270155,-0.01511485,-0.15244390,0.18032426,0.01613232,0.15212195,-0.098
 51235,-0.03492102,-0.03186595,-0.01081173,-0.01733173,-0.00851700,-0.0
 2050831,-0.03517299,-0.02629689,0.00313911,0.00036215,-0.00184257,-0.0
 1485430,0.03616524,-0.00158997,0.00300828,0.00159569,-0.00312129,-0.08
 903958,0.04718307,-0.00275963,-0.00892249,0.02135550,0.00578863,0.2365
 0136,0.00898911,-0.09318126,-0.01236866,0.01037066,0.01036366,0.010563
 54,-0.00552861,-0.04641823,-0.02106055,0.00414671,-0.00240640,-0.00208
 091,0.00473921,-0.06997293,-0.02301478,-0.00308716,-0.00069730,-0.0048
 0654,0.00441088,-0.11588693,-0.02141368,-0.00480491,0.00355642,0.00029
 654,-0.01923589,0.31464298,-0.01997245,-0.03269334,-0.07997100,0.00011
 087,-0.00135437,-0.00664268,-0.02446107,-0.03681303,-0.01454941,-0.001
 53463,-0.00510838,0.00608066,-0.00461348,-0.01145782,0.00335127,-0.004
 02807,-0.00389443,0.00450239,-0.01389454,0.00159072,-0.06673809,-0.001
 81131,0.01584560,-0.00172468,0.07020468,0.07388505,0.15569154\\-0.0182
 7221,-0.00201226,0.00790554,-0.00418211,-0.01961668,-0.00340369,-0.034
 85283,0.01057641,-0.01595758,0.00391783,0.00438399,0.00023029,0.035951
 47,-0.00946735,0.01410979,-0.00048462,0.00563027,-0.00163923,0.0044898
 5,-0.00845589,0.01757155,-0.00406425,-0.01965004,-0.00335364,0.0174968
 7,0.03861156,-0.01546304\\\@


 NOT WHAT WE DID SHALL BE THE TEST
 WHEN ACT AND WILL ARE DONE,
 BUT WHAT OUR LORD INFERS WE WOULD-
 HAD WE DIVINER BEEN.
           EMILY DICKINSON  POEMS NO. CLXXV
 Job cpu time:       0 days  0 hours  0 minutes 11.5 seconds.
 File lengths (MBytes):  RWF=      5 Int=      0 D2E=      0 Chk=      1 Scr=      1
 Normal termination of Gaussian 09 at Thu Feb 25 13:43:21 2016.
