 Entering Gaussian System, Link 0=g09
 Initial command:
 /opt/g09/g09/l1.exe "/opt/g09/scratch/Gau-22293.inp" -scrdir="/opt/g09/scratch/"
 Entering Link 1 = /opt/g09/g09/l1.exe PID=     22295.
  
 Copyright (c) 1988,1990,1992,1993,1995,1998,2003,2009,2013,
            Gaussian, Inc.  All Rights Reserved.
  
 This is part of the Gaussian(R) 09 program.  It is based on
 the Gaussian(R) 03 system (copyright 2003, Gaussian, Inc.),
 the Gaussian(R) 98 system (copyright 1998, Gaussian, Inc.),
 the Gaussian(R) 94 system (copyright 1995, Gaussian, Inc.),
 the Gaussian 92(TM) system (copyright 1992, Gaussian, Inc.),
 the Gaussian 90(TM) system (copyright 1990, Gaussian, Inc.),
 the Gaussian 88(TM) system (copyright 1988, Gaussian, Inc.),
 the Gaussian 86(TM) system (copyright 1986, Carnegie Mellon
 University), and the Gaussian 82(TM) system (copyright 1983,
 Carnegie Mellon University). Gaussian is a federally registered
 trademark of Gaussian, Inc.
  
 This software contains proprietary and confidential information,
 including trade secrets, belonging to Gaussian, Inc.
  
 This software is provided under written license and may be
 used, copied, transmitted, or stored only in accord with that
 written license.
  
 The following legend is applicable only to US Government
 contracts under FAR:
  
                    RESTRICTED RIGHTS LEGEND
  
 Use, reproduction and disclosure by the US Government is
 subject to restrictions as set forth in subparagraphs (a)
 and (c) of the Commercial Computer Software - Restricted
 Rights clause in FAR 52.227-19.
  
 Gaussian, Inc.
 340 Quinnipiac St., Bldg. 40, Wallingford CT 06492
  
  
 ---------------------------------------------------------------
 Warning -- This program may not be used in any manner that
 competes with the business of Gaussian, Inc. or will provide
 assistance to any competitor of Gaussian, Inc.  The licensee
 of this program is prohibited from giving any competitor of
 Gaussian, Inc. access to this program.  By using this program,
 the user acknowledges that Gaussian, Inc. is engaged in the
 business of creating and licensing software in the field of
 computational chemistry and represents and warrants to the
 licensee that it is not a competitor of Gaussian, Inc. and that
 it will not use this program in any manner prohibited above.
 ---------------------------------------------------------------
  

 Cite this work as:
 Gaussian 09, Revision D.01,
 M. J. Frisch, G. W. Trucks, H. B. Schlegel, G. E. Scuseria, 
 M. A. Robb, J. R. Cheeseman, G. Scalmani, V. Barone, B. Mennucci, 
 G. A. Petersson, H. Nakatsuji, M. Caricato, X. Li, H. P. Hratchian, 
 A. F. Izmaylov, J. Bloino, G. Zheng, J. L. Sonnenberg, M. Hada, 
 M. Ehara, K. Toyota, R. Fukuda, J. Hasegawa, M. Ishida, T. Nakajima, 
 Y. Honda, O. Kitao, H. Nakai, T. Vreven, J. A. Montgomery, Jr., 
 J. E. Peralta, F. Ogliaro, M. Bearpark, J. J. Heyd, E. Brothers, 
 K. N. Kudin, V. N. Staroverov, T. Keith, R. Kobayashi, J. Normand, 
 K. Raghavachari, A. Rendell, J. C. Burant, S. S. Iyengar, J. Tomasi, 
 M. Cossi, N. Rega, J. M. Millam, M. Klene, J. E. Knox, J. B. Cross, 
 V. Bakken, C. Adamo, J. Jaramillo, R. Gomperts, R. E. Stratmann, 
 O. Yazyev, A. J. Austin, R. Cammi, C. Pomelli, J. W. Ochterski, 
 R. L. Martin, K. Morokuma, V. G. Zakrzewski, G. A. Voth, 
 P. Salvador, J. J. Dannenberg, S. Dapprich, A. D. Daniels, 
 O. Farkas, J. B. Foresman, J. V. Ortiz, J. Cioslowski, 
 and D. J. Fox, Gaussian, Inc., Wallingford CT, 2013.
 
 ******************************************
 Gaussian 09:  ES64L-G09RevD.01 24-Apr-2013
                21-Feb-2016 
 ******************************************
 ------------------------
 #P AM1(Input,print) freq
 ------------------------
 1/10=4,30=1,38=1/1,3;
 2/12=2,17=6,18=5,40=1/2;
 3/5=2,16=1,25=1,41=700000,71=2,135=100,136=1,140=1/1,2,3;
 4/35=1/1;
 5/5=2,35=1,38=5,98=1/2;
 8/6=4,10=90,11=11/1;
 11/6=1,8=1,9=11,15=111,16=1/1,2,10;
 10/6=1/2;
 6/7=2,8=2,9=2,10=2,18=1,28=1/1;
 7/8=1,10=1,25=1/1,2,3,16;
 1/10=4,30=1/3;
 99//99;
 Leave Link    1 at Sun Feb 21 20:30:54 2016, MaxMem=           0 cpu:         0.0
 (Enter /opt/g09/g09/l101.exe)
 -----------------
 AM1-Reparam Input
 -----------------
 Symbolic Z-matrix:
 Charge =  0 Multiplicity = 1
 6                     0.90375  -0.53588  -0.36064 
 6                    -0.36419  -1.12444  -0.03122 
 8                    -1.01231  -0.18876   0.33663 
 6                    -0.46536   0.66518  -0.16708 
 6                     0.54005   0.73992  -0.16357 
 1                     1.8693    1.38829  -0.06556 
 1                    -0.9378    1.87764   0.36838 
 1                    -1.11474  -1.8847   -0.24536 
 1                     1.7458   -1.31516   0.20015 
 
 NAtoms=      9 NQM=        9 NQMF=       0 NMMI=      0 NMMIF=      0
                NMic=       0 NMicF=      0.
                    Isotopes and Nuclear Properties:
 (Nuclear quadrupole moments (NQMom) in fm**2, nuclear magnetic moments (NMagM)
  in nuclear magnetons)

  Atom         1           2           3           4           5           6           7           8           9
 IAtWgt=          12          12          16          12          12           1           1           1           1
 AtmWgt=  12.0000000  12.0000000  15.9949146  12.0000000  12.0000000   1.0078250   1.0078250   1.0078250   1.0078250
 NucSpn=           0           0           0           0           0           1           1           1           1
 AtZEff=   0.0000000   0.0000000   0.0000000   0.0000000   0.0000000   0.0000000   0.0000000   0.0000000   0.0000000
 NQMom=    0.0000000   0.0000000   0.0000000   0.0000000   0.0000000   0.0000000   0.0000000   0.0000000   0.0000000
 NMagM=    0.0000000   0.0000000   0.0000000   0.0000000   0.0000000   2.7928460   2.7928460   2.7928460   2.7928460
 AtZNuc=   6.0000000   6.0000000   8.0000000   6.0000000   6.0000000   1.0000000   1.0000000   1.0000000   1.0000000
 Leave Link  101 at Sun Feb 21 20:30:54 2016, MaxMem=    33554432 cpu:         0.0
 (Enter /opt/g09/g09/l103.exe)

 GradGradGradGradGradGradGradGradGradGradGradGradGradGradGradGradGradGrad
 Berny optimization.
 Initialization pass.
 Trust Radius=3.00D-01 FncErr=1.00D-07 GrdErr=1.00D-07
 Number of steps in this run=      2 maximum allowed number of steps=      2.
 GradGradGradGradGradGradGradGradGradGradGradGradGradGradGradGradGradGrad

 Leave Link  103 at Sun Feb 21 20:30:54 2016, MaxMem=    33554432 cpu:         0.0
 (Enter /opt/g09/g09/l202.exe)
                          Input orientation:                          
 ---------------------------------------------------------------------
 Center     Atomic      Atomic             Coordinates (Angstroms)
 Number     Number       Type             X           Y           Z
 ---------------------------------------------------------------------
      1          6           0        0.903751   -0.535878   -0.360639
      2          6           0       -0.364191   -1.124442   -0.031221
      3          8           0       -1.012314   -0.188755    0.336631
      4          6           0       -0.465364    0.665176   -0.167078
      5          6           0        0.540052    0.739918   -0.163570
      6          1           0        1.869296    1.388286   -0.065561
      7          1           0       -0.937795    1.877641    0.368378
      8          1           0       -1.114736   -1.884695   -0.245361
      9          1           0        1.745796   -1.315163    0.200151
 ---------------------------------------------------------------------
                    Distance matrix (angstroms):
                    1          2          3          4          5
     1  C    0.000000
     2  C    1.436176   0.000000
     3  O    2.068329   1.196198   0.000000
     4  C    1.831522   1.797617   1.132288   0.000000
     5  C    1.341182   2.076297   1.876826   1.008196   0.000000
     6  H    2.172960   3.362060   3.309455   2.446187   1.482186
     7  H    3.122152   3.082402   2.067983   1.407116   1.939437
     8  H    2.430409   1.089568   1.795945   2.632424   3.103805
     9  H    1.277032   2.131186   2.982380   2.990958   2.410284
                    6          7          8          9
     6  H    0.000000
     7  H    2.882279   0.000000
     8  H    4.432740   3.816170   0.000000
     9  H    2.719281   4.174202   2.950507   0.000000
 Stoichiometry    C4H4O
 Framework group  C1[X(C4H4O)]
 Deg. of freedom    21
 Full point group                 C1      NOp   1
 Largest Abelian subgroup         C1      NOp   1
 Largest concise Abelian subgroup C1      NOp   1
                         Standard orientation:                         
 ---------------------------------------------------------------------
 Center     Atomic      Atomic             Coordinates (Angstroms)
 Number     Number       Type             X           Y           Z
 ---------------------------------------------------------------------
      1          6           0       -0.435165    1.035301   -0.118981
      2          6           0        0.919140    0.566741   -0.024586
      3          8           0        0.789147   -0.602379    0.192550
      4          6           0       -0.251029   -0.784352   -0.216102
      5          6           0       -1.023534   -0.166076   -0.022630
      6          1           0       -2.409701    0.237499    0.312848
      7          1           0       -0.675915   -2.061882    0.193000
      8          1           0        1.952098    0.649107   -0.361294
      9          1           0       -0.436126    2.084627    0.608840
 ---------------------------------------------------------------------
 Rotational constants (GHZ):     12.3085516     10.4923947      5.9132281
 Leave Link  202 at Sun Feb 21 20:30:54 2016, MaxMem=    33554432 cpu:         0.0
 (Enter /opt/g09/g09/l301.exe)

 Semi-emprical parameters in input format:
 Method=8 CoreType=1 PeptideFC=0.0112665416 RIJScale=0.4975875634
 ****
 H       
 PQN=1 NValence=1 F0ss=0.4807934910 ZetaOverlap=1.2256182921 U=-0.4218746694
 Beta=-0.2428396456 CoreKO=1.0700705719 KON=0,0,0,1.0936615640 KON=1,0,1,1.1359920611
 KON=0,1,1,1.0639254510 KON=2,1,1,1.0086028151 EISol=-0.4188110042 EHeat=0.0830298228
 Alpha=1.5991163267
 GCore=0.0092695921,1.4740803152,2.4414661396
 GCore=0.0003671951,1.4241041051,3.6849678256
 GCore=-0.0011482711,0.5512512395,4.1812706089
 ****
 C       
 PQN=2,2 NValence=4 F0ss=0.4814594265 F0sp=0.4192621194 F0pp=0.3638017487 F2pp=0.1753675953
 G1sp=0.2618265860
 ZetaOverlap=1.6528651851,1.7434963280
 U=-1.8962177239,-1.5263852995
 Beta=-0.5405628491,-0.3020823757 DDN=0,1,0.7802576723 DDN=1,1,0.7911223089
 CoreKO=1.1258691149 KON=0,0,0,1.0283608259 KON=1,0,1,0.8199888977 KON=0,1,1,1.0696231712
 KON=2,1,1,0.7018682227 EISol=-4.4398989268 EHeat=0.2723305520 Alpha=1.3057107066
 DipHyp=1.5604255668
 GCore=0.0007103664,1.3530960858,3.3052741345
 GCore=0.0035011208,1.4594649216,3.6916853680
 GCore=-0.0014646050,1.4029293894,3.9678161791
 GCore=-0.0000888104,1.4186620265,4.8703566230
 ****
 O       
 PQN=2,2 NValence=6 F0ss=0.5210317224 F0sp=0.5389754337 F0pp=0.4997168457 F2pp=0.2346294866
 G1sp=0.4666493261
 ZetaOverlap=2.9834730820,2.3029731305
 U=-3.5025619594,-2.9290096463
 Beta=-1.0178374592,-1.1375823632 DDN=0,1,0.5393692205 DDN=1,1,0.4575288187
 CoreKO=0.8272668593 KON=0,0,0,0.9305360534 KON=1,0,1,0.4867217185 KON=0,1,1,0.8678328898
 KON=2,1,1,0.5820758184 EISol=-11.6164441184 EHeat=0.0949133088 Alpha=2.1296704724
 DipHyp=1.0786763802
 GCore=0.0179318094,1.2879144752,1.7473607510
 GCore=0.0052722859,2.0552364377,2.9739421482
 ****
 
 Standard basis: VSTO-6G (5D, 7F)
 Ernie: Thresh=  0.10000D-02 Tol=  0.10000D-05 Strict=F.
  NNHCO=     0 NNPyr=     0 NCTC=     0               EPep=         0.000000000
    EC=        73.268095291  ECS=         3.259766440   EG=         0.564609324
   EHC=         0.000000000  EAt=       -31.051283842  AtH=         1.516354808
 EPDDG=         0.000000000  ECC=        77.092471055 EAtT=        32.567638650
 There are    24 symmetry adapted cartesian basis functions of A   symmetry.
 There are    24 symmetry adapted basis functions of A   symmetry.
    24 basis functions,   144 primitive gaussians,    24 cartesian basis functions
    13 alpha electrons       13 beta electrons
       nuclear repulsion energy       109.6601097054 Hartrees.
 IExCor=    0 DFT=F Ex=HF Corr=None ExCW=0 ScaHFX=  1.000000
 ScaDFX=  1.000000  1.000000  1.000000  1.000000 ScalE2=  1.000000  1.000000
 IRadAn=      0 IRanWt=     -1 IRanGd=            0 ICorTp=0 IEmpDi=  4
 Integral buffers will be    131072 words long.
 Regular integral format.
 Two-electron integral symmetry is turned off.
 Leave Link  301 at Sun Feb 21 20:30:54 2016, MaxMem=    33554432 cpu:         0.0
 (Enter /opt/g09/g09/l302.exe)
 Do NDO integrals.
 NPDir=0 NMtPBC=     1 NCelOv=     1 NCel=       1 NClECP=     1 NCelD=      1
         NCelK=      1 NCelE2=     1 NClLst=     1 CellRange=     0.0.
 One-electron integrals computed using PRISM.
 NBasis=    24 RedAO= F EigKep=  0.00D+00  NBF=    24
 NBsUse=    24 1.00D-04 EigRej=  0.00D+00 NBFU=    24
 Leave Link  302 at Sun Feb 21 20:30:54 2016, MaxMem=    33554432 cpu:         0.0
 (Enter /opt/g09/g09/l303.exe)
 DipDrv:  MaxL=1.
 Leave Link  303 at Sun Feb 21 20:30:54 2016, MaxMem=    33554432 cpu:         0.0
 (Enter /opt/g09/g09/l401.exe)
 Simple Huckel Guess.
 JPrj=0 DoOrth=F DoCkMO=F.
 Leave Link  401 at Sun Feb 21 20:30:54 2016, MaxMem=    33554432 cpu:         0.0
 (Enter /opt/g09/g09/l502.exe)
 Closed shell SCF:
 Using DIIS extrapolation, IDIIS=  1040.
 Overlap will be assumed to be unity.
 Two-electron integral symmetry not used.
 Keep J ints in memory in canonical form, NReq=888082.
 IVT=       79475 IEndB=       79475 NGot=    33554432 MDV=    33473473
 LenX=    33473473 LenY=    33472456
 Requested convergence on RMS density matrix=1.00D-08 within 128 cycles.
 Requested convergence on MAX density matrix=1.00D-06.
 Requested convergence on             energy=1.00D-06.
 No special actions if energy rises.
 FoFCou: FMM=F IPFlag=           0 FMFlag=           0 FMFlg1=           0
         NFxFlg=           0 DoJE=F BraDBF=F KetDBF=F FulRan=T
         wScrn=  0.000000 ICntrl=     600 IOpCl=  2 I1Cent=           0 NGrid=           0
         NMat0=    1 NMatS0=     54 NMatT0=    0 NMatD0=    1 NMtDS0=    0 NMtDT0=    0
 Symmetry not used in FoFCou.

 Cycle   1  Pass 1  IDiag  1:
 E= 0.578358136124976    
 DIIS: error= 5.81D-02 at cycle   1 NSaved=   1.
 NSaved= 1 IEnMin= 1 EnMin= 0.578358136124976     IErMin= 1 ErrMin= 5.81D-02
 ErrMax= 5.81D-02  0.00D+00 EMaxC= 1.00D-01 BMatC= 1.29D-01 BMatP= 1.29D-01
 IDIUse=3 WtCom= 4.19D-01 WtEn= 5.81D-01
 Coeff-Com:  0.100D+01
 Coeff-En:   0.100D+01
 Coeff:      0.100D+01
 GapD=    2.000 DampG=2.000 DampE=0.500 DampFc=1.0000 IDamp=-1.
 RMSDP=3.19D-02 MaxDP=2.59D-01              OVMax= 0.00D+00

 Cycle   2  Pass 1  IDiag  1:
 E= 0.965747904434693E-01 Delta-E=       -0.481783345682 Rises=F Damp=F
 DIIS: error= 2.17D-02 at cycle   2 NSaved=   2.
 NSaved= 2 IEnMin= 2 EnMin= 0.965747904434693E-01 IErMin= 2 ErrMin= 2.17D-02
 ErrMax= 2.17D-02  0.00D+00 EMaxC= 1.00D-01 BMatC= 1.43D-02 BMatP= 1.29D-01
 IDIUse=3 WtCom= 7.83D-01 WtEn= 2.17D-01
 Coeff-Com: -0.293D+00 0.129D+01
 Coeff-En:   0.000D+00 0.100D+01
 Coeff:     -0.229D+00 0.123D+01
 RMSDP=1.28D-02 MaxDP=7.78D-02 DE=-4.82D-01 OVMax= 0.00D+00

 Cycle   3  Pass 1  IDiag  1:
 E= 0.299999358842769E-01 Delta-E=       -0.066574854559 Rises=F Damp=F
 DIIS: error= 7.81D-03 at cycle   3 NSaved=   3.
 NSaved= 3 IEnMin= 3 EnMin= 0.299999358842769E-01 IErMin= 3 ErrMin= 7.81D-03
 ErrMax= 7.81D-03  0.00D+00 EMaxC= 1.00D-01 BMatC= 1.82D-03 BMatP= 1.43D-02
 IDIUse=3 WtCom= 9.22D-01 WtEn= 7.81D-02
 Coeff-Com:  0.135D+00-0.832D+00 0.170D+01
 Coeff-En:   0.000D+00 0.000D+00 0.100D+01
 Coeff:      0.124D+00-0.767D+00 0.164D+01
 RMSDP=6.88D-03 MaxDP=4.28D-02 DE=-6.66D-02 OVMax= 0.00D+00

 Cycle   4  Pass 1  IDiag  3:
 E= 0.185140704789006E-01 Delta-E=       -0.011485865405 Rises=F Damp=F
 DIIS: error= 1.29D-03 at cycle   4 NSaved=   4.
 NSaved= 4 IEnMin= 4 EnMin= 0.185140704789006E-01 IErMin= 4 ErrMin= 1.29D-03
 ErrMax= 1.29D-03  0.00D+00 EMaxC= 1.00D-01 BMatC= 9.32D-05 BMatP= 1.82D-03
 IDIUse=3 WtCom= 9.87D-01 WtEn= 1.29D-02
 Coeff-Com: -0.215D-01 0.188D+00-0.602D+00 0.144D+01
 Coeff-En:   0.000D+00 0.000D+00 0.000D+00 0.100D+01
 Coeff:     -0.212D-01 0.186D+00-0.594D+00 0.143D+01
 Gap=     0.378 Goal=   None    Shift=    0.000
 RMSDP=1.87D-03 MaxDP=1.07D-02 DE=-1.15D-02 OVMax= 1.17D-02

 Cycle   5  Pass 1  IDiag  3:
 E= 0.177784673521018E-01 Delta-E=       -0.000735603127 Rises=F Damp=F
 DIIS: error= 4.98D-04 at cycle   5 NSaved=   5.
 NSaved= 5 IEnMin= 5 EnMin= 0.177784673521018E-01 IErMin= 5 ErrMin= 4.98D-04
 ErrMax= 4.98D-04  0.00D+00 EMaxC= 1.00D-01 BMatC= 8.80D-06 BMatP= 9.32D-05
 IDIUse=3 WtCom= 9.95D-01 WtEn= 4.98D-03
 Coeff-Com:  0.312D-03-0.345D-01 0.192D+00-0.799D+00 0.164D+01
 Coeff-En:   0.000D+00 0.000D+00 0.000D+00 0.000D+00 0.100D+01
 Coeff:      0.310D-03-0.343D-01 0.191D+00-0.795D+00 0.164D+01
 Gap=     0.378 Goal=   None    Shift=    0.000
 RMSDP=6.92D-04 MaxDP=4.35D-03 DE=-7.36D-04 OVMax= 5.11D-03

 Cycle   6  Pass 1  IDiag  3:
 E= 0.176961654420325E-01 Delta-E=       -0.000082301910 Rises=F Damp=F
 DIIS: error= 1.56D-04 at cycle   6 NSaved=   6.
 NSaved= 6 IEnMin= 6 EnMin= 0.176961654420325E-01 IErMin= 6 ErrMin= 1.56D-04
 ErrMax= 1.56D-04  0.00D+00 EMaxC= 1.00D-01 BMatC= 6.83D-07 BMatP= 8.80D-06
 IDIUse=3 WtCom= 9.98D-01 WtEn= 1.56D-03
 Coeff-Com:  0.345D-03 0.103D-01-0.688D-01 0.321D+00-0.876D+00 0.161D+01
 Coeff-En:   0.000D+00 0.000D+00 0.000D+00 0.000D+00 0.000D+00 0.100D+01
 Coeff:      0.345D-03 0.102D-01-0.686D-01 0.321D+00-0.874D+00 0.161D+01
 Gap=     0.379 Goal=   None    Shift=    0.000
 RMSDP=2.06D-04 MaxDP=1.36D-03 DE=-8.23D-05 OVMax= 1.60D-03

 Cycle   7  Pass 1  IDiag  3:
 E= 0.176898555017289E-01 Delta-E=       -0.000006309940 Rises=F Damp=F
 DIIS: error= 3.36D-05 at cycle   7 NSaved=   7.
 NSaved= 7 IEnMin= 7 EnMin= 0.176898555017289E-01 IErMin= 7 ErrMin= 3.36D-05
 ErrMax= 3.36D-05  0.00D+00 EMaxC= 1.00D-01 BMatC= 3.78D-08 BMatP= 6.83D-07
 IDIUse=1 WtCom= 1.00D+00 WtEn= 0.00D+00
 Coeff-Com: -0.268D-03-0.209D-02 0.183D-01-0.946D-01 0.292D+00-0.726D+00
 Coeff-Com:  0.151D+01
 Coeff:     -0.268D-03-0.209D-02 0.183D-01-0.946D-01 0.292D+00-0.726D+00
 Coeff:      0.151D+01
 Gap=     0.379 Goal=   None    Shift=    0.000
 RMSDP=4.38D-05 MaxDP=2.81D-04 DE=-6.31D-06 OVMax= 3.51D-04

 Cycle   8  Pass 1  IDiag  3:
 E= 0.176895362825888E-01 Delta-E=       -0.000000319219 Rises=F Damp=F
 DIIS: error= 7.54D-06 at cycle   8 NSaved=   8.
 NSaved= 8 IEnMin= 8 EnMin= 0.176895362825888E-01 IErMin= 8 ErrMin= 7.54D-06
 ErrMax= 7.54D-06  0.00D+00 EMaxC= 1.00D-01 BMatC= 2.42D-09 BMatP= 3.78D-08
 IDIUse=1 WtCom= 1.00D+00 WtEn= 0.00D+00
 Coeff-Com: -0.158D-04 0.137D-02-0.759D-02 0.343D-01-0.103D+00 0.274D+00
 Coeff-Com: -0.760D+00 0.156D+01
 Coeff:     -0.158D-04 0.137D-02-0.759D-02 0.343D-01-0.103D+00 0.274D+00
 Coeff:     -0.760D+00 0.156D+01
 Gap=     0.379 Goal=   None    Shift=    0.000
 RMSDP=1.06D-05 MaxDP=5.88D-05 DE=-3.19D-07 OVMax= 8.12D-05

 Cycle   9  Pass 1  IDiag  3:
 E= 0.176895171388054E-01 Delta-E=       -0.000000019144 Rises=F Damp=F
 DIIS: error= 1.43D-06 at cycle   9 NSaved=   9.
 NSaved= 9 IEnMin= 9 EnMin= 0.176895171388054E-01 IErMin= 9 ErrMin= 1.43D-06
 ErrMax= 1.43D-06  0.00D+00 EMaxC= 1.00D-01 BMatC= 1.17D-10 BMatP= 2.42D-09
 IDIUse=1 WtCom= 1.00D+00 WtEn= 0.00D+00
 Coeff-Com:  0.359D-04-0.462D-03 0.181D-02-0.693D-02 0.196D-01-0.557D-01
 Coeff-Com:  0.195D+00-0.598D+00 0.144D+01
 Coeff:      0.359D-04-0.462D-03 0.181D-02-0.693D-02 0.196D-01-0.557D-01
 Coeff:      0.195D+00-0.598D+00 0.144D+01
 Gap=     0.379 Goal=   None    Shift=    0.000
 RMSDP=2.22D-06 MaxDP=1.29D-05 DE=-1.91D-08 OVMax= 1.71D-05

 Cycle  10  Pass 1  IDiag  3:
 E= 0.176895162886410E-01 Delta-E=       -0.000000000850 Rises=F Damp=F
 DIIS: error= 2.67D-07 at cycle  10 NSaved=  10.
 NSaved=10 IEnMin=10 EnMin= 0.176895162886410E-01 IErMin=10 ErrMin= 2.67D-07
 ErrMax= 2.67D-07  0.00D+00 EMaxC= 1.00D-01 BMatC= 5.66D-12 BMatP= 1.17D-10
 IDIUse=1 WtCom= 1.00D+00 WtEn= 0.00D+00
 Coeff-Com: -0.134D-04 0.121D-03-0.344D-03 0.102D-02-0.261D-02 0.880D-02
 Coeff-Com: -0.433D-01 0.172D+00-0.589D+00 0.145D+01
 Coeff:     -0.134D-04 0.121D-03-0.344D-03 0.102D-02-0.261D-02 0.880D-02
 Coeff:     -0.433D-01 0.172D+00-0.589D+00 0.145D+01
 Gap=     0.379 Goal=   None    Shift=    0.000
 RMSDP=4.46D-07 MaxDP=1.96D-06 DE=-8.50D-10 OVMax= 3.03D-06

 Cycle  11  Pass 1  IDiag  3:
 E= 0.176895162473443E-01 Delta-E=       -0.000000000041 Rises=F Damp=F
 DIIS: error= 8.55D-08 at cycle  11 NSaved=  11.
 NSaved=11 IEnMin=11 EnMin= 0.176895162473443E-01 IErMin=11 ErrMin= 8.55D-08
 ErrMax= 8.55D-08  0.00D+00 EMaxC= 1.00D-01 BMatC= 4.01D-13 BMatP= 5.66D-12
 IDIUse=1 WtCom= 1.00D+00 WtEn= 0.00D+00
 Coeff-Com:  0.268D-05-0.195D-04 0.187D-04 0.655D-04-0.315D-03 0.267D-03
 Coeff-Com:  0.458D-02-0.319D-01 0.150D+00-0.584D+00 0.146D+01
 Coeff:      0.268D-05-0.195D-04 0.187D-04 0.655D-04-0.315D-03 0.267D-03
 Coeff:      0.458D-02-0.319D-01 0.150D+00-0.584D+00 0.146D+01
 Gap=     0.379 Goal=   None    Shift=    0.000
 RMSDP=1.23D-07 MaxDP=6.41D-07 DE=-4.13D-11 OVMax= 9.96D-07

 Cycle  12  Pass 1  IDiag  3:
 E= 0.176895162447011E-01 Delta-E=       -0.000000000003 Rises=F Damp=F
 DIIS: error= 1.98D-08 at cycle  12 NSaved=  12.
 NSaved=12 IEnMin=12 EnMin= 0.176895162447011E-01 IErMin=12 ErrMin= 1.98D-08
 ErrMax= 1.98D-08  0.00D+00 EMaxC= 1.00D-01 BMatC= 3.27D-14 BMatP= 4.01D-13
 IDIUse=1 WtCom= 1.00D+00 WtEn= 0.00D+00
 Coeff-Com: -0.523D-07-0.148D-05 0.241D-04-0.140D-03 0.440D-03-0.103D-02
 Coeff-Com:  0.179D-02 0.139D-03-0.202D-01 0.147D+00-0.649D+00 0.152D+01
 Coeff:     -0.523D-07-0.148D-05 0.241D-04-0.140D-03 0.440D-03-0.103D-02
 Coeff:      0.179D-02 0.139D-03-0.202D-01 0.147D+00-0.649D+00 0.152D+01
 Gap=     0.379 Goal=   None    Shift=    0.000
 RMSDP=3.65D-08 MaxDP=1.91D-07 DE=-2.64D-12 OVMax= 3.49D-07

 Cycle  13  Pass 1  IDiag  3:
 E= 0.176895162447579E-01 Delta-E=        0.000000000000 Rises=F Damp=F
 DIIS: error= 5.38D-09 at cycle  13 NSaved=  13.
 NSaved=13 IEnMin=12 EnMin= 0.176895162447011E-01 IErMin=13 ErrMin= 5.38D-09
 ErrMax= 5.38D-09  0.00D+00 EMaxC= 1.00D-01 BMatC= 1.93D-15 BMatP= 3.27D-14
 IDIUse=1 WtCom= 1.00D+00 WtEn= 0.00D+00
 Coeff-Com: -0.107D-06 0.184D-05-0.132D-04 0.659D-04-0.199D-03 0.485D-03
 Coeff-Com: -0.110D-02 0.177D-02 0.416D-03-0.299D-01 0.193D+00-0.658D+00
 Coeff-Com:  0.149D+01
 Coeff:     -0.107D-06 0.184D-05-0.132D-04 0.659D-04-0.199D-03 0.485D-03
 Coeff:     -0.110D-02 0.177D-02 0.416D-03-0.299D-01 0.193D+00-0.658D+00
 Coeff:      0.149D+01
 Gap=     0.379 Goal=   None    Shift=    0.000
 RMSDP=8.78D-09 MaxDP=5.14D-08 DE= 5.68D-14 OVMax= 6.19D-08

 Cycle  14  Pass 2  IDiag  1:
 SCF Done:  E(RAM1) =  0.176895162448E-01 A.U. after   14 cycles
            NFock= 13  Conv=0.88D-08     -V/T= 1.0010
 KE=-1.781724152902D+01 PE=-1.810649129926D+02 EE= 8.923973433240D+01
 Leave Link  502 at Sun Feb 21 20:30:54 2016, MaxMem=    33554432 cpu:         0.0
 (Enter /opt/g09/g09/l801.exe)
 Range of M.O.s used for correlation:     1    24
 NBasis=    24 NAE=    13 NBE=    13 NFC=     0 NFV=     0
 NROrb=     24 NOA=    13 NOB=    13 NVA=    11 NVB=    11
 Leave Link  801 at Sun Feb 21 20:30:54 2016, MaxMem=    33554432 cpu:         0.0
 (Enter /opt/g09/g09/l1101.exe)
 Using compressed storage, NAtomX=     9.
 Will process     10 centers per pass.
 Leave Link 1101 at Sun Feb 21 20:30:54 2016, MaxMem=    33554432 cpu:         0.0
 (Enter /opt/g09/g09/l1102.exe)
 Symmetrizing basis deriv contribution to polar:
 IMax=3 JMax=2 DiffMx= 0.00D+00
 Leave Link 1102 at Sun Feb 21 20:30:54 2016, MaxMem=    33554432 cpu:         0.0
 (Enter /opt/g09/g09/l1110.exe)
 Forming Gx(P) for the SCF density, NAtomX=     9.
 Integral derivatives from FoFJK, PRISM(SPDF).
 Do as many integral derivatives as possible in FoFJK.
 G2DrvN: MDV=      33495365.
 G2DrvN: will do    10 centers at a time, making    1 passes.
 Calling FoFCou, ICntrl=  3107 FMM=F I1Cent=   0 AccDes= 0.00D+00.
 FoFJK:  IHMeth= 8 ICntrl=    3107 DoSepK=F KAlg= 0 I1Cent=   0 FoldK=F
 IRaf=         0 NMat=   1 IRICut=       1 DoRegI=T DoRafI=F ISym2E= 0.
 FoFCou: FMM=F IPFlag=           0 FMFlag=      100000 FMFlg1=           0
         NFxFlg=           0 DoJE=F BraDBF=F KetDBF=F FulRan=T
         wScrn=  0.000000 ICntrl=    3107 IOpCl=  0 I1Cent=           0 NGrid=           0
         NMat0=    1 NMatS0=      1 NMatT0=    0 NMatD0=    1 NMtDS0=    0 NMtDT0=    0
 Symmetry not used in FoFCou.
 End of G2Drv F.D. properties file   721 does not exist.
 End of G2Drv F.D. properties file   722 does not exist.
 End of G2Drv F.D. properties file   788 does not exist.
 Leave Link 1110 at Sun Feb 21 20:30:54 2016, MaxMem=    33554432 cpu:         0.0
 (Enter /opt/g09/g09/l1002.exe)
 Minotr:  Closed shell wavefunction.
          IDoAtm=111111111
          Direct CPHF calculation.
          Differentiating once with respect to electric field.
                with respect to dipole field.
          Differentiating once with respect to nuclear coordinates.
          Electric field/nuclear overlap derivatives assumed to be zero.
          Requested convergence is 1.0D-08 RMS, and 1.0D-07 maximum.
          NewPWx=T KeepS1=F KeepF1=F KeepIn=T MapXYZ=F SortEE=F KeepMc=T.
          MDV=      33495423 using IRadAn=       2.
 Keep J ints in memory in canonical form, NReq=871704.
 FoFCou: FMM=F IPFlag=           0 FMFlag=           0 FMFlg1=           0
         NFxFlg=           0 DoJE=F BraDBF=F KetDBF=F FulRan=T
         wScrn=  0.000000 ICntrl=     600 IOpCl=  2 I1Cent=           0 NGrid=           0
         NMat0=    1 NMatS0=     54 NMatT0=    0 NMatD0=    1 NMtDS0=    0 NMtDT0=    0
 Symmetry not used in FoFCou.
          Solving linear equations separately, MaxMat=       0.
          There are    30 degrees of freedom in the 1st order CPHF.  IDoFFX=5 NUNeed=    30.
 LinEq1:  Iter=  0 NonCon=    30 RMS=3.63D-01 Max=2.03D+00 NDo=    30
 AX will form    30 AO Fock derivatives at one time.
 LinEq1:  Iter=  1 NonCon=    30 RMS=6.24D-02 Max=2.82D-01 NDo=    30
 LinEq1:  Iter=  2 NonCon=    30 RMS=7.01D-03 Max=3.36D-02 NDo=    30
 LinEq1:  Iter=  3 NonCon=    30 RMS=1.05D-03 Max=4.08D-03 NDo=    30
 LinEq1:  Iter=  4 NonCon=    30 RMS=1.53D-04 Max=6.68D-04 NDo=    30
 LinEq1:  Iter=  5 NonCon=    30 RMS=2.21D-05 Max=8.18D-05 NDo=    30
 LinEq1:  Iter=  6 NonCon=    30 RMS=3.75D-06 Max=1.26D-05 NDo=    30
 LinEq1:  Iter=  7 NonCon=    19 RMS=5.36D-07 Max=1.95D-06 NDo=    30
 LinEq1:  Iter=  8 NonCon=     3 RMS=6.99D-08 Max=2.46D-07 NDo=    30
 LinEq1:  Iter=  9 NonCon=     1 RMS=1.02D-08 Max=4.47D-08 NDo=    30
 LinEq1:  Iter= 10 NonCon=     0 RMS=1.44D-09 Max=4.64D-09 NDo=    30
 Linear equations converged to 1.000D-08 1.000D-07 after    10 iterations.
 FullF1:  Do perturbations    1 to     3.
 Isotropic polarizability for W=    0.000000       36.29 Bohr**3.
 End of Minotr F.D. properties file   721 does not exist.
 End of Minotr F.D. properties file   722 does not exist.
 End of Minotr F.D. properties file   788 does not exist.
 Leave Link 1002 at Sun Feb 21 20:30:54 2016, MaxMem=    33554432 cpu:         0.0
 (Enter /opt/g09/g09/l601.exe)
 Copying SCF densities to generalized density rwf, IOpCl= 0 IROHF=0.

 **********************************************************************

            Population analysis using the SCF density.

 **********************************************************************

 Orbital symmetries:
       Occupied  (A) (A) (A) (A) (A) (A) (A) (A) (A) (A) (A) (A)
                 (A)
       Virtual   (A) (A) (A) (A) (A) (A) (A) (A) (A) (A) (A)
 The electronic state is 1-A.
 Alpha  occ. eigenvalues --   -1.87260  -1.26478  -1.13342  -0.86454  -0.80714
 Alpha  occ. eigenvalues --   -0.73975  -0.72474  -0.56656  -0.53199  -0.46967
 Alpha  occ. eigenvalues --   -0.43484  -0.41821  -0.37311
 Alpha virt. eigenvalues --    0.00532   0.04020   0.05789   0.08014   0.13060
 Alpha virt. eigenvalues --    0.16229   0.16656   0.18376   0.22705   0.24664
 Alpha virt. eigenvalues --    0.27102
          Condensed to atoms (all electrons):
               1          2          3          4          5          6
     1  C    4.388561   0.000000   0.000000   0.000000   0.000000   0.000000
     2  C    0.000000   4.803181   0.000000   0.000000   0.000000   0.000000
     3  O    0.000000   0.000000   5.292474   0.000000   0.000000   0.000000
     4  C    0.000000   0.000000   0.000000   4.586957   0.000000   0.000000
     5  C    0.000000   0.000000   0.000000   0.000000   4.529233   0.000000
     6  H    0.000000   0.000000   0.000000   0.000000   0.000000   0.582972
     7  H    0.000000   0.000000   0.000000   0.000000   0.000000   0.000000
     8  H    0.000000   0.000000   0.000000   0.000000   0.000000   0.000000
     9  H    0.000000   0.000000   0.000000   0.000000   0.000000   0.000000
               7          8          9
     1  C    0.000000   0.000000   0.000000
     2  C    0.000000   0.000000   0.000000
     3  O    0.000000   0.000000   0.000000
     4  C    0.000000   0.000000   0.000000
     5  C    0.000000   0.000000   0.000000
     6  H    0.000000   0.000000   0.000000
     7  H    0.564647   0.000000   0.000000
     8  H    0.000000   0.618613   0.000000
     9  H    0.000000   0.000000   0.633363
 Mulliken charges:
               1
     1  C   -0.388561
     2  C   -0.803181
     3  O    0.707526
     4  C   -0.586957
     5  C   -0.529233
     6  H    0.417028
     7  H    0.435353
     8  H    0.381387
     9  H    0.366637
 Sum of Mulliken charges =   0.00000
 Mulliken charges with hydrogens summed into heavy atoms:
               1
     1  C   -0.021924
     2  C   -0.421793
     3  O    0.707526
     4  C   -0.151604
     5  C   -0.112205
 APT charges:
               1
     1  C   -0.317574
     2  C   -0.749710
     3  O    0.451869
     4  C   -0.672773
     5  C   -0.439372
     6  H    0.419500
     7  H    0.429107
     8  H    0.472843
     9  H    0.406105
 Sum of APT charges =  -0.00001
 APT charges with hydrogens summed into heavy atoms:
               1
     1  C    0.088531
     2  C   -0.276867
     3  O    0.451869
     4  C   -0.243666
     5  C   -0.019872
 Charge=              0.0000 electrons
 Dipole moment (field-independent basis, Debye):
    X=             -0.6759    Y=             -2.0414    Z=              2.6111  Tot=              3.3826
 N-N= 1.096601097054D+02 E-N=-1.810649130363D+02  KE=-1.781724152902D+01
  Exact polarizability:  45.940   1.810  48.893  -1.504  -2.064  14.023
 Approx polarizability:  35.619   1.779  37.000  -0.395  -1.166   9.694
 Leave Link  601 at Sun Feb 21 20:30:54 2016, MaxMem=    33554432 cpu:         0.0
 (Enter /opt/g09/g09/l701.exe)
 Compute integral second derivatives.
 ... and contract with generalized density number  0.
 Leave Link  701 at Sun Feb 21 20:30:54 2016, MaxMem=    33554432 cpu:         0.0
 (Enter /opt/g09/g09/l702.exe)
 L702 exits ... SP integral derivatives will be done elsewhere.
 Leave Link  702 at Sun Feb 21 20:30:54 2016, MaxMem=    33554432 cpu:         0.0
 (Enter /opt/g09/g09/l703.exe)
 Compute integral second derivatives, UseDBF=F ICtDFT=           0.
 Integral derivatives from FoFJK, PRISM(SPDF).
 Calling FoFJK, ICntrl=    100127 FMM=F ISym2X=0 I1Cent= 0 IOpClX= 0 NMat=1 NMatS=1 NMatT=0.
 FoFJK:  IHMeth= 8 ICntrl=  100127 DoSepK=F KAlg= 0 I1Cent=   0 FoldK=F
 IRaf=         0 NMat=   1 IRICut=       1 DoRegI=T DoRafI=F ISym2E= 0.
 FoFCou: FMM=F IPFlag=           0 FMFlag=      100000 FMFlg1=         800
         NFxFlg=           0 DoJE=F BraDBF=F KetDBF=F FulRan=T
         wScrn=  0.000000 ICntrl=  100127 IOpCl=  0 I1Cent=           0 NGrid=           0
         NMat0=    1 NMatS0=      1 NMatT0=    0 NMatD0=    1 NMtDS0=    0 NMtDT0=    0
 Symmetry not used in FoFCou.
 Leave Link  703 at Sun Feb 21 20:30:54 2016, MaxMem=    33554432 cpu:         0.0
 (Enter /opt/g09/g09/l716.exe)
 Dipole        =-2.65900384D-01-8.03165909D-01 1.02728926D+00
 Polarizability= 4.59398305D+01 1.81022807D+00 4.88934706D+01
                -1.50426035D+00-2.06430699D+00 1.40233909D+01
 HyperPolar    =-3.22345840D+01 1.37957619D+01-4.23467032D+01
                -9.51689052D+01 4.73219904D+01-1.24120737D+01
                 4.22632787D+01 1.02342709D+01-2.35961699D+00
                 7.08325536D+00
 Full mass-weighted force constant matrix:
 Low frequencies ----1464.8660-1119.6097 -857.9819 -699.2693 -632.3813   -0.0026
 Low frequencies ---   -0.0005    0.0003  176.6091
 ******    3 imaginary frequencies (negative Signs) ****** 
 Diagonal vibrational polarizability:
       17.3230766      12.0595687      22.2259597
 Harmonic frequencies (cm**-1), IR intensities (KM/Mole), Raman scattering
 activities (A**4/AMU), depolarization ratios for plane and unpolarized
 incident light, reduced masses (AMU), force constants (mDyne/A),
 and normal coordinates:
                      1                      2                      3
                      A                      A                      A
 Frequencies --  -1359.0406              -982.2597              -576.5296
 Red. masses --     10.6180                 8.7821                 3.3606
 Frc consts  --     11.5546                 4.9923                 0.6581
 IR Inten    --      7.7275                16.6248                 3.7414
  Atom  AN      X      Y      Z        X      Y      Z        X      Y      Z
     1   6    -0.01   0.08   0.17     0.02  -0.15   0.07    -0.01   0.03   0.21
     2   6    -0.04   0.05   0.04     0.08  -0.07  -0.05     0.02  -0.03  -0.24
     3   8     0.11   0.02  -0.26     0.17  -0.11  -0.02    -0.07   0.06   0.22
     4   6    -0.13  -0.33   0.59     0.13   0.53   0.20     0.04  -0.04  -0.06
     5   6     0.04   0.17  -0.48    -0.45  -0.16  -0.20     0.04   0.00  -0.16
     6   1    -0.05   0.05  -0.15    -0.08  -0.12  -0.11    -0.02   0.00  -0.04
     7   1     0.08   0.02   0.07    -0.14   0.12   0.36     0.06  -0.03  -0.17
     8   1    -0.04   0.14   0.03     0.00  -0.03  -0.25    -0.13  -0.22  -0.76
     9   1    -0.05  -0.04   0.30     0.14  -0.12   0.10     0.06  -0.06   0.34
                      4                      5                      6
                      A                      A                      A
 Frequencies --    629.0452               750.3246               914.1681
 Red. masses --      2.1070                 2.2888                 1.2051
 Frc consts  --      0.4912                 0.7592                 0.5934
 IR Inten    --    122.8475               132.5072               147.5123
  Atom  AN      X      Y      Z        X      Y      Z        X      Y      Z
     1   6     0.06  -0.08   0.05     0.05  -0.09  -0.04     0.02  -0.01  -0.06
     2   6     0.15   0.05  -0.13     0.15   0.10   0.18     0.00  -0.01  -0.03
     3   8    -0.09   0.12  -0.01    -0.07   0.10  -0.06     0.02   0.00   0.03
     4   6    -0.06  -0.04   0.01    -0.05  -0.04   0.00    -0.02   0.02   0.08
     5   6    -0.08  -0.06   0.00    -0.07  -0.05   0.01    -0.04   0.02   0.04
     6   1    -0.01  -0.09  -0.02    -0.02  -0.05  -0.01     0.10  -0.15   0.04
     7   1     0.07  -0.04   0.04     0.11  -0.06  -0.03     0.15   0.03  -0.96
     8   1     0.44  -0.02   0.80    -0.03  -0.49  -0.79    -0.01   0.04  -0.01
     9   1     0.05  -0.15   0.16     0.07  -0.06  -0.04     0.03  -0.03   0.01
                      7                      8                      9
                      A                      A                      A
 Frequencies --    942.4392              1114.9675              1153.8279
 Red. masses --      1.0665                 1.1513                 1.1880
 Frc consts  --      0.5581                 0.8432                 0.9319
 IR Inten    --    261.3055                88.5049               289.0204
  Atom  AN      X      Y      Z        X      Y      Z        X      Y      Z
     1   6     0.02   0.04   0.02    -0.06   0.04   0.06     0.03  -0.03   0.07
     2   6    -0.01  -0.01  -0.01     0.01  -0.01  -0.02     0.02   0.00  -0.03
     3   8    -0.02  -0.01  -0.01     0.03  -0.01  -0.02     0.01   0.00  -0.02
     4   6    -0.02   0.01   0.00     0.02   0.02   0.01    -0.02  -0.01   0.01
     5   6    -0.01   0.03   0.02     0.01   0.00   0.01    -0.01  -0.01   0.08
     6   1     0.62  -0.69  -0.30    -0.12   0.02  -0.10    -0.19   0.22  -0.84
     7   1    -0.03  -0.01   0.16     0.04   0.01  -0.12    -0.05   0.02  -0.08
     8   1    -0.01  -0.04  -0.04     0.22  -0.71   0.12    -0.09   0.33  -0.14
     9   1    -0.05   0.07  -0.03    -0.45   0.17  -0.39    -0.08   0.05  -0.18
                     10                     11                     12
                      A                      A                      A
 Frequencies --   1180.2303              1219.1669              1264.1615
 Red. masses --      1.2078                 1.0811                 1.2537
 Frc consts  --      0.9912                 0.9468                 1.1804
 IR Inten    --     58.2199               136.6781               116.0546
  Atom  AN      X      Y      Z        X      Y      Z        X      Y      Z
     1   6    -0.05   0.01  -0.07     0.00  -0.04   0.02    -0.01   0.00  -0.06
     2   6    -0.06   0.03  -0.01     0.04   0.02   0.00     0.09  -0.04  -0.01
     3   8     0.04   0.02  -0.01     0.01   0.02   0.00    -0.01  -0.03   0.01
     4   6     0.03   0.00   0.02     0.01  -0.03   0.00    -0.02   0.03   0.01
     5   6     0.03  -0.02   0.05     0.01  -0.02  -0.01     0.02   0.07   0.02
     6   1     0.05   0.11  -0.36     0.08  -0.06   0.20    -0.14  -0.08   0.00
     7   1    -0.35   0.15   0.00    -0.83   0.35  -0.14     0.07  -0.01   0.10
     8   1     0.08  -0.45   0.05    -0.01   0.16  -0.04     0.01   0.14  -0.12
     9   1     0.24  -0.24   0.61    -0.21   0.01  -0.19    -0.77  -0.37   0.41
                     13                     14                     15
                      A                      A                      A
 Frequencies --   1345.4631              1547.5568              1665.5529
 Red. masses --      1.0465                 4.8468                 1.2047
 Frc consts  --      1.1162                 6.8391                 1.9690
 IR Inten    --    100.9419                 0.9182               277.4297
  Atom  AN      X      Y      Z        X      Y      Z        X      Y      Z
     1   6     0.00  -0.04   0.01     0.46  -0.08   0.02    -0.03  -0.10   0.02
     2   6    -0.03   0.01   0.00    -0.34   0.11  -0.04    -0.02  -0.02   0.01
     3   8     0.00   0.01   0.00     0.02   0.03   0.00     0.00   0.00   0.00
     4   6     0.00   0.00   0.00    -0.02   0.00  -0.02    -0.02   0.00  -0.02
     5   6    -0.02  -0.03  -0.01    -0.03  -0.02   0.00     0.02   0.06  -0.01
     6   1     0.73   0.61   0.03    -0.34  -0.16   0.18     0.05  -0.02  -0.02
     7   1     0.09  -0.08  -0.03     0.02   0.02   0.08     0.38   0.89   0.07
     8   1    -0.02   0.00   0.01    -0.21  -0.30   0.07     0.00  -0.04   0.02
     9   1    -0.26  -0.07  -0.01    -0.53  -0.20   0.05     0.07  -0.12  -0.08
                     16                     17                     18
                      A                      A                      A
 Frequencies --   1809.8048              2114.9437              2405.0369
 Red. masses --      2.6448                 1.2314                10.8811
 Frc consts  --      5.1039                 3.2452                37.0824
 IR Inten    --    185.9317               309.4051                20.8380
  Atom  AN      X      Y      Z        X      Y      Z        X      Y      Z
     1   6     0.07   0.26  -0.04     0.01   0.13   0.02    -0.05   0.06   0.01
     2   6     0.04  -0.04   0.01    -0.01  -0.03   0.01     0.11   0.47  -0.06
     3   8    -0.01  -0.01  -0.01    -0.01   0.02   0.00     0.37  -0.29   0.19
     4   6     0.01  -0.09   0.00     0.01  -0.01   0.01    -0.32  -0.24  -0.21
     5   6    -0.11  -0.23   0.01    -0.01  -0.05   0.00    -0.29   0.12   0.01
     6   1    -0.02   0.10   0.03     0.00   0.00   0.00     0.06   0.03   0.02
     7   1     0.20   0.64   0.01     0.01   0.04   0.00     0.03  -0.05   0.12
     8   1     0.00   0.13  -0.05    -0.01   0.01  -0.01     0.27  -0.03  -0.04
     9   1    -0.21   0.47   0.32     0.14  -0.89  -0.41     0.10  -0.28  -0.10
                     19                     20                     21
                      A                      A                      A
 Frequencies --   2496.4368              3360.4826              3453.6481
 Red. masses --     11.4677                 9.2810                 1.1047
 Frc consts  --     42.1082                61.7517                 7.7634
 IR Inten    --    257.3673                73.8217               481.2425
  Atom  AN      X      Y      Z        X      Y      Z        X      Y      Z
     1   6     0.00   0.01   0.00     0.00   0.01   0.00     0.00   0.00   0.00
     2   6     0.06   0.53  -0.10     0.03   0.04  -0.02     0.07   0.01  -0.02
     3   8    -0.39  -0.43  -0.04    -0.13  -0.05  -0.05     0.02   0.01   0.00
     4   6     0.17   0.17   0.19     0.59  -0.30  -0.02    -0.04   0.01   0.00
     5   6     0.28  -0.16  -0.02    -0.41   0.33   0.10     0.02  -0.02  -0.01
     6   1    -0.02   0.02  -0.03    -0.04   0.01  -0.01     0.00   0.00   0.00
     7   1     0.15   0.31  -0.11    -0.02  -0.02   0.00     0.00   0.00   0.00
     8   1    -0.04   0.08   0.02    -0.47  -0.08   0.16    -0.93  -0.22   0.29
     9   1     0.07  -0.14  -0.07    -0.03  -0.05  -0.01     0.00   0.00   0.00

 -------------------
 - Thermochemistry -
 -------------------
 Temperature   298.150 Kelvin.  Pressure   1.00000 Atm.
 Atom     1 has atomic number  6 and mass  12.00000
 Atom     2 has atomic number  6 and mass  12.00000
 Atom     3 has atomic number  8 and mass  15.99491
 Atom     4 has atomic number  6 and mass  12.00000
 Atom     5 has atomic number  6 and mass  12.00000
 Atom     6 has atomic number  1 and mass   1.00783
 Atom     7 has atomic number  1 and mass   1.00783
 Atom     8 has atomic number  1 and mass   1.00783
 Atom     9 has atomic number  1 and mass   1.00783
 Molecular mass:    68.02621 amu.
 Principal axes and moments of inertia in atomic units:
                           1         2         3
     Eigenvalues --   146.62499 172.00470 305.20406
           X            0.98483   0.16844  -0.04158
           Y           -0.16783   0.98566   0.01778
           Z            0.04397  -0.01053   0.99898
 This molecule is an asymmetric top.
 Rotational symmetry number  1.
 Rotational temperatures (Kelvin)      0.59072     0.50355     0.28379
 Rotational constants (GHZ):          12.30855    10.49239     5.91323
    3 imaginary frequencies ignored.
 Zero-point vibrational energy     175655.2 (Joules/Mol)
                                   41.98260 (Kcal/Mol)
 Vibrational temperatures:    905.05  1079.55  1315.28  1355.96  1604.19
          (Kelvin)           1660.10  1698.09  1754.11  1818.84  1935.82
                             2226.59  2396.36  2603.90  3042.93  3460.31
                             3591.81  4834.98  4969.02
 
 Zero-point correction=                           0.066904 (Hartree/Particle)
 Thermal correction to Energy=                    0.070180
 Thermal correction to Enthalpy=                  0.071124
 Thermal correction to Gibbs Free Energy=         0.041049
 Sum of electronic and zero-point Energies=              0.084593
 Sum of electronic and thermal Energies=                 0.087869
 Sum of electronic and thermal Enthalpies=               0.088813
 Sum of electronic and thermal Free Energies=            0.058739
 
                     E (Thermal)             CV                S
                      KCal/Mol        Cal/Mol-Kelvin    Cal/Mol-Kelvin
 Total                   44.038              9.944             63.297
 Electronic               0.000              0.000              0.000
 Translational            0.889              2.981             38.570
 Rotational               0.889              2.981             23.558
 Vibrational             42.261              3.983              1.170
                       Q            Log10(Q)             Ln(Q)
 Total Bot       0.131404D-18        -18.881393        -43.476014
 Total V=0       0.779886D+12         11.892031         27.382413
 Vib (Bot)       0.189724D-30        -30.721878        -70.739739
 Vib (V=0)       0.112602D+01          0.051546          0.118688
 Electronic      0.100000D+01          0.000000          0.000000
 Translational   0.220531D+08          7.343470         16.908964
 Rotational      0.314062D+05          4.497016         10.354761
 
                                                          AM1-Reparam Input
                                                             IR Spectrum
 
     3   3                               2  2          2          1    1    1      1  1 1111                                         
     4   3                               4  4          1          8    6    5      3  2 2111      99     7   6                       
     5   6                               9  0          1          1    6    4      4  6 1851      41     5   2                       
     4   0                               6  5          5          0    6    8      5  4 9045      24     0   9                       
 
     X   X                               X  X          X          X    X    X      X  X XXXX      XX     X   X                       
     X   X                               X             X          X    X           X  X XXXX      XX     X   X                       
     X   X                               X             X          X    X           X  X X XX      XX     X   X                       
     X                                   X             X          X    X           X  X X XX      XX     X   X                       
     X                                   X             X          X    X              X X X       XX     X   X                       
     X                                   X             X          X    X                X X       XX     X                           
     X                                   X             X          X    X                  X       X                                  
     X                                   X             X          X    X                  X       X                                  
     X                                   X             X               X                  X       X                                  
     X                                   X             X               X                  X       X                                  
     X                                   X             X               X                  X       X                                  
     X                                                 X               X                  X                                          
     X                                                 X                                                                             
     X                                                                                                                               
     X                                                                                                                               
     X                                                                                                                               
     X                                                                                                                               
     X                                                                                                                               
     X                                                                                                                               
     X                                                                                                                               
 
 ***** Axes restored to original set *****
 -------------------------------------------------------------------
 Center     Atomic                   Forces (Hartrees/Bohr)
 Number     Number              X              Y              Z
 -------------------------------------------------------------------
      1        6           0.211190700   -0.269423541    0.045389703
      2        6           0.145048845   -0.435433584   -0.098118811
      3        8          -0.691040956   -0.182909543    0.344627786
      4        6          -0.867446694    0.661850830   -0.063430786
      5        6           1.320065532    0.312593187   -0.103984687
      6        1          -0.111525295   -0.033022874   -0.012216755
      7        1           0.008862438   -0.058095384   -0.044085068
      8        1           0.026265740   -0.055623727   -0.003779628
      9        1          -0.041420310    0.060064637   -0.064401754
 -------------------------------------------------------------------
 Cartesian Forces:  Max     1.320065532 RMS     0.387167275
 Z-matrix is all fixed cartesians, so copy forces.
 Force constants in Cartesian coordinates: 
                1             2             3             4             5 
      1  0.730210D+00
      2 -0.150150D+00  0.871360D+00
      3 -0.168064D+00  0.811426D-01  0.127833D+00
      4 -0.360900D+00 -0.120533D+00  0.747691D-01  0.887760D+00
      5 -0.195932D+00 -0.123641D+00  0.487544D-01 -0.317360D+00  0.143017D+01
      6  0.650638D-01  0.161846D-01 -0.994917D-01 -0.299382D+00  0.349141D+00
      7 -0.182871D+00 -0.271831D-01  0.785909D-01 -0.365631D+00  0.677297D+00
      8  0.783424D-01  0.566154D-02 -0.284927D-01  0.696017D+00 -0.867251D+00
      9  0.772402D-01  0.142073D-01  0.297223D-01  0.255502D+00 -0.374463D+00
     10 -0.327246D-01  0.155247D+00  0.175584D-01  0.115769D-01  0.121122D-01
     11  0.404118D-01  0.203599D-01 -0.959353D-02 -0.121840D-02 -0.204196D+00
     12  0.146229D-01 -0.297731D-01  0.466949D-01  0.987386D-02  0.574435D-02
     13 -0.441827D-01  0.145536D+00  0.192884D-01  0.345964D-01 -0.287451D-01
     14  0.224033D+00 -0.669911D+00 -0.916002D-01 -0.943550D-01 -0.483807D-01
     15  0.281526D-01 -0.907704D-01 -0.516745D-01 -0.356552D-02  0.435941D-02
     16 -0.771373D-02 -0.161704D-01 -0.194393D-02  0.222565D-02  0.220654D-02
     17 -0.117205D-01 -0.237401D-01 -0.290085D-02 -0.150627D-03  0.853733D-04
     18 -0.209393D-02 -0.655787D-02  0.495004D-02  0.236208D-02  0.117697D-02
     19 -0.967150D-03 -0.162838D-02  0.190580D-03 -0.142026D-04 -0.483805D-02
     20 -0.140769D-02  0.106818D-02  0.688887D-04 -0.258616D-02 -0.112974D-03
     21  0.628390D-03 -0.122675D-02  0.257498D-02  0.386980D-02  0.383822D-02
     22 -0.132628D-01 -0.187188D-01 -0.564407D-03 -0.175928D+00 -0.152646D+00
     23 -0.455828D-02 -0.609499D-02 -0.118727D-02 -0.164718D+00 -0.184127D+00
     24  0.490188D-02  0.884640D-02  0.342954D-02 -0.418486D-01 -0.424377D-01
     25 -0.875872D-01  0.336004D-01 -0.198248D-01 -0.336843D-01  0.790529D-02
     26  0.209816D-01 -0.750613D-01  0.380850D-02  0.490410D-02 -0.254344D-02
     27 -0.204516D-01  0.794787D-02 -0.640385D-01 -0.158062D-02  0.388608D-02
                6             7             8             9            10 
      6  0.139657D+00
      7  0.249677D+00  0.951527D+00
      8 -0.387131D+00  0.129280D+00  0.195348D+01
      9 -0.796489D-01 -0.805645D+00 -0.267548D+00  0.200676D+00
     10  0.274298D-01 -0.260872D+00 -0.746413D+00  0.393509D+00  0.261583D+01
     11  0.250605D-01 -0.710287D+00 -0.910338D+00  0.638166D+00  0.840333D+00
     12  0.485743D-01  0.417860D+00  0.676320D+00 -0.231183D+00 -0.423287D+00
     13 -0.101658D-01 -0.171693D+00 -0.142257D+00  0.861147D-01 -0.227285D+01
     14  0.312277D-01 -0.651888D-01 -0.268970D-01  0.158094D-01 -0.256646D+00
     15  0.386582D-01  0.728240D-01  0.495591D-01  0.508677D-01 -0.131819D-01
     16 -0.150306D-02 -0.241378D-02  0.102532D-02 -0.724351D-03 -0.238924D-01
     17  0.642256D-03  0.353185D-02 -0.184116D-04 -0.406137D-02 -0.556779D-03
     18  0.224663D-02  0.113895D-03 -0.237565D-02  0.448951D-02  0.506188D-02
     19  0.237994D-02  0.924643D-02 -0.364719D-02  0.261562D-03 -0.374380D-01
     20  0.214265D-02  0.365575D-02 -0.696273D-01  0.172764D-03 -0.734799D-02
     21  0.401914D-02 -0.557719D-02 -0.110990D-01  0.821841D-02 -0.658583D-02
     22 -0.338166D-01  0.215308D-01 -0.101315D-01 -0.627564D-02 -0.147583D-02
     23 -0.392807D-01 -0.944958D-02 -0.916312D-01 -0.262822D-01  0.498105D-02
     24 -0.543022D-01 -0.627597D-02 -0.311480D-01  0.130718D-01 -0.399545D-03
     25  0.316686D-03  0.117690D-02 -0.221643D-02  0.177129D-04  0.184752D-02
     26  0.201299D-02 -0.165603D-02  0.661834D-02  0.399897D-02 -0.170959D-02
     27  0.287888D-03 -0.156762D-02  0.191600D-02  0.378595D-02 -0.105646D-03
               11            12            13            14            15 
     11  0.635518D+00
     12 -0.666378D+00 -0.251733D+00
     13 -0.164555D+00 -0.144640D-01  0.249249D+01
     14  0.475438D+00  0.132888D-01  0.139601D+00  0.347200D+00
     15 -0.560371D-02  0.432339D+00 -0.966416D-01  0.434656D-01 -0.410455D+00
     16 -0.158804D-01  0.140740D-02 -0.380984D-02  0.256800D-01  0.416817D-02
     17  0.335491D-02  0.409985D-03  0.571496D-02 -0.473678D-01  0.512388D-02
     18  0.314763D-02  0.210923D-02 -0.375458D-02  0.425365D-02 -0.662693D-01
     19  0.664969D-02 -0.433837D-02 -0.300849D-01  0.216069D-01  0.891770D-02
     20 -0.156500D-01  0.706239D-02  0.260053D-01 -0.164718D-01 -0.915100D-02
     21  0.223490D-01 -0.552904D-01  0.151337D-01 -0.138791D-01  0.541816D-02
     22  0.608096D-02  0.352023D-03 -0.251815D-03  0.146283D-03  0.739973D-03
     23 -0.903587D-03 -0.685402D-02 -0.808735D-03  0.252643D-02 -0.762119D-03
     24 -0.659291D-02  0.516372D-02  0.442694D-02 -0.136390D-02  0.479844D-03
     25 -0.153469D-02 -0.202723D-02 -0.421294D-02  0.512283D-02 -0.141341D-02
     26 -0.358311D-02  0.180298D-03  0.195081D-01 -0.161356D-01  0.377902D-02
     27 -0.555155D-03  0.332730D-02  0.623008D-04 -0.120264D-02  0.636610D-03
               16            17            18            19            20 
     16  0.351769D-01
     17  0.349272D-02  0.680819D-01
     18 -0.177982D-02  0.383214D-04  0.518981D-01
     19 -0.854877D-03  0.455972D-03  0.474820D-04  0.597764D-01
     20  0.304901D-03  0.122349D-02  0.303801D-03 -0.189548D-01  0.101291D+00
     21  0.209719D-03  0.129317D-03  0.103334D-03 -0.723589D-02 -0.390080D-03
     22 -0.574800D-03 -0.246084D-03 -0.153667D-04  0.433224D-03 -0.365351D-03
     23 -0.655578D-03 -0.290821D-03  0.306594D-04  0.195698D-03 -0.107350D-02
     24 -0.195502D-04  0.135800D-03  0.149158D-03 -0.314040D-03 -0.200228D-03
     25  0.185695D-02 -0.521555D-03  0.583196D-04 -0.970518D-04  0.696141D-03
     26 -0.308700D-05 -0.132846D-02 -0.175111D-04  0.160038D-03 -0.647070D-03
     27  0.185479D-03  0.482719D-03  0.323228D-03  0.911006D-04 -0.918312D-05
               21            22            23            24            25 
     21  0.349339D-01
     22 -0.482244D-03  0.169918D+00
     23  0.413965D-03  0.175691D+00  0.279906D+00
     24 -0.169606D-03  0.400342D-01  0.739585D-01  0.319106D-01
     25  0.395778D-04 -0.387947D-03 -0.677766D-03 -0.505243D-03  0.121088D+00
     26 -0.135480D-03  0.189118D-03  0.168817D-02 -0.119787D-02 -0.423742D-01
     27  0.192172D-03  0.281987D-04 -0.367563D-04  0.267140D-03  0.233384D-01
               26            27 
     26  0.909924D-01
     27 -0.124290D-01  0.552182D-01
 Leave Link  716 at Sun Feb 21 20:30:54 2016, MaxMem=    33554432 cpu:         0.0
 (Enter /opt/g09/g09/l103.exe)

 GradGradGradGradGradGradGradGradGradGradGradGradGradGradGradGradGradGrad
 Berny optimization.
 Search for a local minimum.
 Step number   1 out of a maximum of    2
 All quantities printed in internal units (Hartrees-Bohrs-Radians)
 Second derivative matrix not updated -- analytic derivatives used.
 ITU=  0
     Eigenvalues ---   -0.87444  -0.44546  -0.22760  -0.01376   0.01483
     Eigenvalues ---    0.03424   0.04575   0.04945   0.05332   0.06768
     Eigenvalues ---    0.07581   0.11321   0.13593   0.18266   0.26439
     Eigenvalues ---    0.62300   1.20889   1.53632   2.95763   3.21610
     Eigenvalues ---    5.22140
 Eigenvalue     1 is  -8.74D-01 should be greater than     0.000000 Eigenvector:
                          Z4        Z5        Y4        Z3        Y5
   1                    0.68409  -0.52016   0.34248  -0.23843  -0.16241
                          Z9        X3        Y3        Z1        Y1
   1                    0.12513  -0.11008  -0.08370   0.07619  -0.07096
 Eigenvalue     2 is  -4.45D-01 should be greater than     0.000000 Eigenvector:
                          Y4        Y5        Z5        X4        X3
   1                    0.57502  -0.52997   0.32930  -0.28620   0.22328
                          Z4        Y1        X5        X7        X9
   1                   -0.16229  -0.15547  -0.14269  -0.10066   0.09552
 Eigenvalue     3 is  -2.28D-01 should be greater than     0.000000 Eigenvector:
                          Z3        X3        Z8        Z2        Z5
   1                    0.53066   0.35605  -0.33158  -0.32264  -0.31117
                          Z9        Z6        Z7        X4        X5
   1                    0.29363   0.23923  -0.18584  -0.16304  -0.12835
 Eigenvalue     4 is  -1.38D-02 should be greater than     0.000000 Eigenvector:
                          Z7        Z2        Z8        Z5        Z4
   1                    0.46085   0.45348  -0.42561  -0.30112  -0.24599
                          Y8        Z1        Z9        X4        X2
   1                    0.23382   0.19843  -0.17073  -0.14338   0.13925
 Quadratic step=9.253D+00 exceeds max=3.000D-01 adjusted using Lamda=-3.481D+00.
 Angle between NR and scaled steps=  76.93 degrees.
 Angle between quadratic step and forces=  11.26 degrees.
 Linear search not attempted -- first point.
 TrRot= -0.000801  0.001001  0.003884  0.432306 -0.000608 -0.433476
 Variable       Old X    -DE/DX   Delta X   Delta X   Delta X     New X
                                 (Linear)    (Quad)   (Total)
    X1        1.70784   0.21119   0.00000   0.04026   0.03858   1.74642
    Y1       -1.01266  -0.26942   0.00000  -0.05384  -0.05472  -1.06738
    Z1       -0.68151   0.04539   0.00000   0.01106   0.01563  -0.66588
    X2       -0.68822   0.14505   0.00000   0.02495   0.02163  -0.66660
    Y2       -2.12489  -0.43543   0.00000  -0.06855  -0.06675  -2.19164
    Z2       -0.05900  -0.09812   0.00000  -0.01670  -0.01374  -0.07274
    X3       -1.91300  -0.69104   0.00000  -0.10460  -0.10624  -2.01923
    Y3       -0.35670  -0.18291   0.00000  -0.03428  -0.03109  -0.38779
    Z3        0.63614   0.34463   0.00000   0.04738   0.05005   0.68619
    X4       -0.87941  -0.86745   0.00000  -0.10154  -0.10054  -0.97995
    Y4        1.25700   0.66185   0.00000   0.13036   0.13259   1.38959
    Z4       -0.31573  -0.06343   0.00000  -0.00473  -0.00104  -0.31677
    X5        1.02055   1.32007   0.00000   0.18005   0.18112   1.20167
    Y5        1.39824   0.31259   0.00000   0.04822   0.04790   1.44614
    Z5       -0.30910  -0.10398   0.00000  -0.02231  -0.01740  -0.32650
    X6        3.53246  -0.11153   0.00000  -0.03417  -0.03184   3.50062
    Y6        2.62348  -0.03302   0.00000  -0.00614  -0.00921   2.61427
    Z6       -0.12389  -0.01222   0.00000  -0.00893  -0.00245  -0.12634
    X7       -1.77218   0.00886   0.00000   0.00084   0.00379  -1.76838
    Y7        3.54823  -0.05810   0.00000  -0.01901  -0.01612   3.53211
    Z7        0.69613  -0.04409   0.00000  -0.01611  -0.01230   0.68383
    X8       -2.10655   0.02627   0.00000   0.00903   0.00430  -2.10225
    Y8       -3.56156  -0.05562   0.00000  -0.02014  -0.01656  -3.57812
    Z8       -0.46367  -0.00378   0.00000  -0.00298  -0.00116  -0.46483
    X9        3.29908  -0.04142   0.00000  -0.00691  -0.01080   3.28827
    Y9       -2.48530   0.06006   0.00000   0.01690   0.01396  -2.47134
    Z9        0.37823  -0.06440   0.00000  -0.02266  -0.01759   0.36064
         Item               Value     Threshold  Converged?
 Maximum Force            1.320066     0.000450     NO 
 RMS     Force            0.387167     0.000300     NO 
 Maximum Displacement     0.181121     0.001800     NO 
 RMS     Displacement     0.057778     0.001200     NO 
 Predicted change in Energy=-4.576173D-01
 GradGradGradGradGradGradGradGradGradGradGradGradGradGradGradGradGradGrad

 Leave Link  103 at Sun Feb 21 20:30:54 2016, MaxMem=    33554432 cpu:         0.0
 (Enter /opt/g09/g09/l9999.exe)
 1\1\GINC-LINUX-CBNE\Freq\RAM1\ZDO\C4H4O1\DUSTIN\21-Feb-2016\0\\#P AM1(
 Input,print) freq\\AM1-Reparam Input\\0,1\C,0.903751,-0.535878,-0.3606
 39\C,-0.364191,-1.124442,-0.031221\O,-1.012314,-0.188755,0.336631\C,-0
 .465364,0.665176,-0.167078\C,0.540052,0.739918,-0.16357\H,1.869296,1.3
 88286,-0.065561\H,-0.937795,1.877641,0.368378\H,-1.114736,-1.884695,-0
 .245361\H,1.745796,-1.315163,0.200151\\Version=ES64L-G09RevD.01\State=
 1-A\HF=0.0176895\RMSD=8.780e-09\RMSF=3.872e-01\ZeroPoint=0.0669035\The
 rmal=0.0701798\Dipole=-0.1510907,0.7446872,1.0925724\DipoleDeriv=-0.43
 18569,0.2653089,0.0694745,0.4372113,-0.1028,0.1107327,0.0485376,-0.083
 5804,-0.4180645,-0.3689573,-0.2177974,-0.3952687,-0.8017735,-1.3252474
 ,0.4248844,-0.1396613,0.1114387,-0.5549266,-0.111079,0.2555262,0.35236
 42,0.4235204,1.1965483,-0.5534661,0.3907114,-0.3100061,0.2701375,-0.43
 91389,-0.2636031,-0.0556058,0.3104515,-1.1761351,0.0296357,-0.1967162,
 0.2542414,-0.4030455,-0.3960498,-0.301824,-0.0480475,-0.2029246,-0.488
 9279,-0.006599,-0.0842391,0.0908846,-0.4331391,0.5368927,0.1700906,0.0
 143462,0.0076229,0.3568261,-0.0336078,-0.0075458,-0.0215324,0.3647808,
 0.3236076,0.0268797,0.0498394,-0.1406315,0.5775582,0.0608856,-0.004673
 5,0.0196309,0.3861552,0.4543575,0.1924573,0.0472481,0.1663158,0.559349
 9,-0.0091336,-0.008576,-0.0186956,0.404823,0.4322135,-0.1270433,-0.034
 3473,-0.1997991,0.4028253,-0.0233279,0.0021715,-0.0423865,0.3832769\Po
 lar=44.248848,-0.7024379,49.1868747,-6.1943355,3.496802,15.4209693\Hyp
 erPolar=69.2028501,29.1063161,-34.5441535,77.0071183,40.3106851,-5.375
 6109,41.4968682,-26.1064363,-3.1612277,17.3096462\PG=C01 [X(C4H4O1)]\N
 Imag=3\\0.73020986,-0.15014987,0.87135973,-0.16806418,0.08114263,0.127
 83256,-0.36090048,-0.12053347,0.07476915,0.88775996,-0.19593234,-0.123
 64133,0.04875445,-0.31736039,1.43016658,0.06506385,0.01618465,-0.09949
 175,-0.29938230,0.34914092,0.13965698,-0.18287112,-0.02718312,0.078590
 93,-0.36563131,0.67729696,0.24967744,0.95152741,0.07834241,0.00566154,
 -0.02849272,0.69601736,-0.86725067,-0.38713059,0.12927970,1.95348246,0
 .07724016,0.01420729,0.02972232,0.25550198,-0.37446288,-0.07964894,-0.
 80564499,-0.26754822,0.20067594,-0.03272463,0.15524749,0.01755837,0.01
 157693,0.01211219,0.02742978,-0.26087218,-0.74641253,0.39350911,2.6158
 2567,0.04041176,0.02035987,-0.00959353,-0.00121840,-0.20419632,0.02506
 050,-0.71028676,-0.91033775,0.63816612,0.84033310,0.63551844,0.0146229
 4,-0.02977312,0.04669491,0.00987386,0.00574435,0.04857426,0.41785969,0
 .67631952,-0.23118340,-0.42328677,-0.66637823,-0.25173337,-0.04418269,
 0.14553650,0.01928842,0.03459638,-0.02874506,-0.01016582,-0.17169345,-
 0.14225672,0.08611473,-2.27284671,-0.16455521,-0.01446396,2.49248573,0
 .22403305,-0.66991128,-0.09160018,-0.09435501,-0.04838070,0.03122772,-
 0.06518877,-0.02689702,0.01580938,-0.25664630,0.47543758,0.01328884,0.
 13960076,0.34720002,0.02815255,-0.09077043,-0.05167446,-0.00356552,0.0
 0435941,0.03865823,0.07282404,0.04955909,0.05086767,-0.01318186,-0.005
 60371,0.43233856,-0.09664160,0.04346561,-0.41045533,-0.00771373,-0.016
 17037,-0.00194393,0.00222565,0.00220654,-0.00150306,-0.00241378,0.0010
 2532,-0.00072435,-0.02389245,-0.01588040,0.00140740,-0.00380984,0.0256
 7997,0.00416817,0.03517693,-0.01172050,-0.02374014,-0.00290085,-0.0001
 5063,0.00008537,0.00064226,0.00353185,-0.00001841,-0.00406137,-0.00055
 678,0.00335491,0.00040999,0.00571496,-0.04736779,0.00512388,0.00349272
 ,0.06808189,-0.00209393,-0.00655787,0.00495004,0.00236208,0.00117697,0
 .00224663,0.00011389,-0.00237565,0.00448951,0.00506188,0.00314763,0.00
 210923,-0.00375458,0.00425365,-0.06626931,-0.00177982,0.00003832,0.051
 89813,-0.00096715,-0.00162838,0.00019058,-0.00001420,-0.00483805,0.002
 37994,0.00924643,-0.00364719,0.00026156,-0.03743797,0.00664969,-0.0043
 3837,-0.03008488,0.02160689,0.00891770,-0.00085488,0.00045597,0.000047
 48,0.05977639,-0.00140769,0.00106818,0.00006889,-0.00258616,-0.0001129
 7,0.00214265,0.00365575,-0.06962727,0.00017276,-0.00734799,-0.01565004
 ,0.00706239,0.02600527,-0.01647178,-0.00915100,0.00030490,0.00122349,0
 .00030380,-0.01895477,0.10129099,0.00062839,-0.00122675,0.00257498,0.0
 0386980,0.00383822,0.00401914,-0.00557719,-0.01109896,0.00821841,-0.00
 658583,0.02234897,-0.05529039,0.01513369,-0.01387913,0.00541816,0.0002
 0972,0.00012932,0.00010333,-0.00723589,-0.00039008,0.03493386,-0.01326
 278,-0.01871881,-0.00056441,-0.17592848,-0.15264562,-0.03381658,0.0215
 3077,-0.01013152,-0.00627564,-0.00147583,0.00608096,0.00035202,-0.0002
 5182,0.00014628,0.00073997,-0.00057480,-0.00024608,-0.00001537,0.00043
 322,-0.00036535,-0.00048224,0.16991765,-0.00455828,-0.00609499,-0.0011
 8727,-0.16471786,-0.18412678,-0.03928069,-0.00944958,-0.09163120,-0.02
 628218,0.00498105,-0.00090359,-0.00685402,-0.00080873,0.00252643,-0.00
 076212,-0.00065558,-0.00029082,0.00003066,0.00019570,-0.00107350,0.000
 41396,0.17569105,0.27990633,0.00490188,0.00884640,0.00342954,-0.041848
 59,-0.04243772,-0.05430216,-0.00627597,-0.03114802,0.01307182,-0.00039
 955,-0.00659291,0.00516372,0.00442694,-0.00136390,0.00047984,-0.000019
 55,0.00013580,0.00014916,-0.00031404,-0.00020023,-0.00016961,0.0400341
 6,0.07395850,0.03191057,-0.08758724,0.03360036,-0.01982480,-0.03368433
 ,0.00790529,0.00031669,0.00117690,-0.00221643,0.00001771,0.00184752,-0
 .00153469,-0.00202723,-0.00421294,0.00512283,-0.00141341,0.00185695,-0
 .00052155,0.00005832,-0.00009705,0.00069614,0.00003958,-0.00038795,-0.
 00067777,-0.00050524,0.12108818,0.02098157,-0.07506131,0.00380850,0.00
 490410,-0.00254344,0.00201299,-0.00165603,0.00661834,0.00399897,-0.001
 70959,-0.00358311,0.00018030,0.01950809,-0.01613556,0.00377902,-0.0000
 0309,-0.00132846,-0.00001751,0.00016004,-0.00064707,-0.00013548,0.0001
 8912,0.00168817,-0.00119787,-0.04237425,0.09099243,-0.02045157,0.00794
 787,-0.06403850,-0.00158062,0.00388608,0.00028789,-0.00156762,0.001916
 00,0.00378595,-0.00010565,-0.00055515,0.00332730,0.00006230,-0.0012026
 4,0.00063661,0.00018548,0.00048272,0.00032323,0.00009110,-0.00000918,0
 .00019217,0.00002820,-0.00003676,0.00026714,0.02333842,-0.01242903,0.0
 5521820\\-0.21119070,0.26942354,-0.04538970,-0.14504885,0.43543358,0.0
 9811881,0.69104096,0.18290954,-0.34462779,0.86744669,-0.66185083,0.063
 43079,-1.32006553,-0.31259319,0.10398469,0.11152529,0.03302287,0.01221
 675,-0.00886244,0.05809538,0.04408507,-0.02626574,0.05562373,0.0037796
 3,0.04142031,-0.06006464,0.06440175\\\@


 THERE IS AN OLD, OLD RECIPE IN MAINE FOR STEWING COOT. PLACE THE
 BIRD IN A KETTLE OF WATER WITH A RED BUILDING BRICK FREE OF MORTAR AND
 BLEMISHES. PARBOIL THE COOT AND BRICK TOGETHER FOR THREE HOURS.
 POUR OFF THE WATER, REFILL THE KETTLE, AND AGAIN PARBOIL FOR THREE HOURS.
 ONCE AGAIN POUR OFF THE WATER, FOR THE LAST TIME ADD FRESH WATER,
 AND LET THE COOT AND BRICK SIMMER TOGETHER OVERNIGHT. IN THE MORNING,
 THROW AWAY THE COOT AND EAT THE BRICK.
 Job cpu time:       0 days  0 hours  0 minutes  0.4 seconds.
 File lengths (MBytes):  RWF=      5 Int=      0 D2E=      0 Chk=      2 Scr=      1
 Normal termination of Gaussian 09 at Sun Feb 21 20:30:54 2016.
