 Entering Gaussian System, Link 0=g09
 Initial command:
 /opt/g09/g09/l1.exe "/opt/g09/scratch/Gau-22294.inp" -scrdir="/opt/g09/scratch/"
 Entering Link 1 = /opt/g09/g09/l1.exe PID=     22296.
  
 Copyright (c) 1988,1990,1992,1993,1995,1998,2003,2009,2013,
            Gaussian, Inc.  All Rights Reserved.
  
 This is part of the Gaussian(R) 09 program.  It is based on
 the Gaussian(R) 03 system (copyright 2003, Gaussian, Inc.),
 the Gaussian(R) 98 system (copyright 1998, Gaussian, Inc.),
 the Gaussian(R) 94 system (copyright 1995, Gaussian, Inc.),
 the Gaussian 92(TM) system (copyright 1992, Gaussian, Inc.),
 the Gaussian 90(TM) system (copyright 1990, Gaussian, Inc.),
 the Gaussian 88(TM) system (copyright 1988, Gaussian, Inc.),
 the Gaussian 86(TM) system (copyright 1986, Carnegie Mellon
 University), and the Gaussian 82(TM) system (copyright 1983,
 Carnegie Mellon University). Gaussian is a federally registered
 trademark of Gaussian, Inc.
  
 This software contains proprietary and confidential information,
 including trade secrets, belonging to Gaussian, Inc.
  
 This software is provided under written license and may be
 used, copied, transmitted, or stored only in accord with that
 written license.
  
 The following legend is applicable only to US Government
 contracts under FAR:
  
                    RESTRICTED RIGHTS LEGEND
  
 Use, reproduction and disclosure by the US Government is
 subject to restrictions as set forth in subparagraphs (a)
 and (c) of the Commercial Computer Software - Restricted
 Rights clause in FAR 52.227-19.
  
 Gaussian, Inc.
 340 Quinnipiac St., Bldg. 40, Wallingford CT 06492
  
  
 ---------------------------------------------------------------
 Warning -- This program may not be used in any manner that
 competes with the business of Gaussian, Inc. or will provide
 assistance to any competitor of Gaussian, Inc.  The licensee
 of this program is prohibited from giving any competitor of
 Gaussian, Inc. access to this program.  By using this program,
 the user acknowledges that Gaussian, Inc. is engaged in the
 business of creating and licensing software in the field of
 computational chemistry and represents and warrants to the
 licensee that it is not a competitor of Gaussian, Inc. and that
 it will not use this program in any manner prohibited above.
 ---------------------------------------------------------------
  

 Cite this work as:
 Gaussian 09, Revision D.01,
 M. J. Frisch, G. W. Trucks, H. B. Schlegel, G. E. Scuseria, 
 M. A. Robb, J. R. Cheeseman, G. Scalmani, V. Barone, B. Mennucci, 
 G. A. Petersson, H. Nakatsuji, M. Caricato, X. Li, H. P. Hratchian, 
 A. F. Izmaylov, J. Bloino, G. Zheng, J. L. Sonnenberg, M. Hada, 
 M. Ehara, K. Toyota, R. Fukuda, J. Hasegawa, M. Ishida, T. Nakajima, 
 Y. Honda, O. Kitao, H. Nakai, T. Vreven, J. A. Montgomery, Jr., 
 J. E. Peralta, F. Ogliaro, M. Bearpark, J. J. Heyd, E. Brothers, 
 K. N. Kudin, V. N. Staroverov, T. Keith, R. Kobayashi, J. Normand, 
 K. Raghavachari, A. Rendell, J. C. Burant, S. S. Iyengar, J. Tomasi, 
 M. Cossi, N. Rega, J. M. Millam, M. Klene, J. E. Knox, J. B. Cross, 
 V. Bakken, C. Adamo, J. Jaramillo, R. Gomperts, R. E. Stratmann, 
 O. Yazyev, A. J. Austin, R. Cammi, C. Pomelli, J. W. Ochterski, 
 R. L. Martin, K. Morokuma, V. G. Zakrzewski, G. A. Voth, 
 P. Salvador, J. J. Dannenberg, S. Dapprich, A. D. Daniels, 
 O. Farkas, J. B. Foresman, J. V. Ortiz, J. Cioslowski, 
 and D. J. Fox, Gaussian, Inc., Wallingford CT, 2013.
 
 ******************************************
 Gaussian 09:  ES64L-G09RevD.01 24-Apr-2013
                21-Feb-2016 
 ******************************************
 ------------------------
 #P AM1(Input,print) freq
 ------------------------
 1/10=4,30=1,38=1/1,3;
 2/12=2,17=6,18=5,40=1/2;
 3/5=2,16=1,25=1,41=700000,71=2,135=100,136=1,140=1/1,2,3;
 4/35=1/1;
 5/5=2,35=1,38=5,98=1/2;
 8/6=4,10=90,11=11/1;
 11/6=1,8=1,9=11,15=111,16=1/1,2,10;
 10/6=1/2;
 6/7=2,8=2,9=2,10=2,18=1,28=1/1;
 7/8=1,10=1,25=1/1,2,3,16;
 1/10=4,30=1/3;
 99//99;
 Leave Link    1 at Sun Feb 21 20:30:54 2016, MaxMem=           0 cpu:         0.0
 (Enter /opt/g09/g09/l101.exe)
 -----------------
 AM1-Reparam Input
 -----------------
 Symbolic Z-matrix:
 Charge =  0 Multiplicity = 1
 6                     0.9528   -0.71493  -0.08868 
 6                    -0.41534  -1.11456  -0.32528 
 8                    -0.92366   0.00993  -0.16211 
 6                    -0.32369   1.01758   0.1187 
 6                     0.94758   0.71354   0.00952 
 1                     1.79284   1.41135  -0.1677 
 1                    -1.01589   2.16045   0.1207 
 1                    -0.91012  -1.78727  -0.0279 
 1                     1.82933  -1.05611   0.21133 
 
 NAtoms=      9 NQM=        9 NQMF=       0 NMMI=      0 NMMIF=      0
                NMic=       0 NMicF=      0.
                    Isotopes and Nuclear Properties:
 (Nuclear quadrupole moments (NQMom) in fm**2, nuclear magnetic moments (NMagM)
  in nuclear magnetons)

  Atom         1           2           3           4           5           6           7           8           9
 IAtWgt=          12          12          16          12          12           1           1           1           1
 AtmWgt=  12.0000000  12.0000000  15.9949146  12.0000000  12.0000000   1.0078250   1.0078250   1.0078250   1.0078250
 NucSpn=           0           0           0           0           0           1           1           1           1
 AtZEff=   0.0000000   0.0000000   0.0000000   0.0000000   0.0000000   0.0000000   0.0000000   0.0000000   0.0000000
 NQMom=    0.0000000   0.0000000   0.0000000   0.0000000   0.0000000   0.0000000   0.0000000   0.0000000   0.0000000
 NMagM=    0.0000000   0.0000000   0.0000000   0.0000000   0.0000000   2.7928460   2.7928460   2.7928460   2.7928460
 AtZNuc=   6.0000000   6.0000000   8.0000000   6.0000000   6.0000000   1.0000000   1.0000000   1.0000000   1.0000000
 Leave Link  101 at Sun Feb 21 20:30:54 2016, MaxMem=    33554432 cpu:         0.0
 (Enter /opt/g09/g09/l103.exe)

 GradGradGradGradGradGradGradGradGradGradGradGradGradGradGradGradGradGrad
 Berny optimization.
 Initialization pass.
 Trust Radius=3.00D-01 FncErr=1.00D-07 GrdErr=1.00D-07
 Number of steps in this run=      2 maximum allowed number of steps=      2.
 GradGradGradGradGradGradGradGradGradGradGradGradGradGradGradGradGradGrad

 Leave Link  103 at Sun Feb 21 20:30:54 2016, MaxMem=    33554432 cpu:         0.0
 (Enter /opt/g09/g09/l202.exe)
                          Input orientation:                          
 ---------------------------------------------------------------------
 Center     Atomic      Atomic             Coordinates (Angstroms)
 Number     Number       Type             X           Y           Z
 ---------------------------------------------------------------------
      1          6           0        0.952803   -0.714929   -0.088680
      2          6           0       -0.415341   -1.114558   -0.325281
      3          8           0       -0.923664    0.009930   -0.162113
      4          6           0       -0.323694    1.017579    0.118695
      5          6           0        0.947579    0.713535    0.009519
      6          1           0        1.792844    1.411349   -0.167701
      7          1           0       -1.015887    2.160450    0.120702
      8          1           0       -0.910115   -1.787265   -0.027900
      9          1           0        1.829328   -1.056105    0.211325
 ---------------------------------------------------------------------
                    Distance matrix (angstroms):
                    1          2          3          4          5
     1  C    0.000000
     2  C    1.444819   0.000000
     3  O    2.012943   1.244785   0.000000
     4  C    2.161951   2.179799   1.205891   0.000000
     5  C    1.431845   2.304683   2.006506   1.311677   0.000000
     6  H    2.287569   3.358738   3.056701   2.171822   1.110326
     7  H    3.491044   3.359350   2.170996   1.336147   2.441541
     8  H    2.150363   0.886438   1.802250   2.869238   3.115514
     9  H    0.987269   2.308658   2.975710   2.990694   1.987419
                    6          7          8          9
     6  H    0.000000
     7  H    2.921181   0.000000
     8  H    4.190067   3.951927   0.000000
     9  H    2.496662   4.295310   2.845412   0.000000
 Stoichiometry    C4H4O
 Framework group  C1[X(C4H4O)]
 Deg. of freedom    21
 Full point group                 C1      NOp   1
 Largest Abelian subgroup         C1      NOp   1
 Largest concise Abelian subgroup C1      NOp   1
                         Standard orientation:                         
 ---------------------------------------------------------------------
 Center     Atomic      Atomic             Coordinates (Angstroms)
 Number     Number       Type             X           Y           Z
 ---------------------------------------------------------------------
      1          6           0        0.479524    1.063539    0.020608
      2          6           0        1.215665   -0.173171   -0.106459
      3          8           0        0.232589   -0.933420   -0.035246
      4          6           0       -0.913354   -0.587463    0.110703
      5          6           0       -0.908829    0.716788   -0.028598
      6          1           0       -1.762713    1.364918   -0.317793
      7          1           0       -1.852632   -1.534223    0.028899
      8          1           0        1.948892   -0.484519    0.282402
      9          1           0        0.567703    2.003025    0.310937
 ---------------------------------------------------------------------
 Rotational constants (GHZ):     10.7114707      9.5951222      5.1195540
 Leave Link  202 at Sun Feb 21 20:30:54 2016, MaxMem=    33554432 cpu:         0.0
 (Enter /opt/g09/g09/l301.exe)

 Semi-emprical parameters in input format:
 Method=8 CoreType=1 PeptideFC=0.0112665416 RIJScale=0.4975875634
 ****
 H       
 PQN=1 NValence=1 F0ss=0.4807934910 ZetaOverlap=1.2256182921 U=-0.4218746694
 Beta=-0.2428396456 CoreKO=1.0700705719 KON=0,0,0,1.0936615640 KON=1,0,1,1.1359920611
 KON=0,1,1,1.0639254510 KON=2,1,1,1.0086028151 EISol=-0.4188110042 EHeat=0.0830298228
 Alpha=1.5991163267
 GCore=0.0092695921,1.4740803152,2.4414661396
 GCore=0.0003671951,1.4241041051,3.6849678256
 GCore=-0.0011482711,0.5512512395,4.1812706089
 ****
 C       
 PQN=2,2 NValence=4 F0ss=0.4814594265 F0sp=0.4192621194 F0pp=0.3638017487 F2pp=0.1753675953
 G1sp=0.2618265860
 ZetaOverlap=1.6528651851,1.7434963280
 U=-1.8962177239,-1.5263852995
 Beta=-0.5405628491,-0.3020823757 DDN=0,1,0.7802576723 DDN=1,1,0.7911223089
 CoreKO=1.1258691149 KON=0,0,0,1.0283608259 KON=1,0,1,0.8199888977 KON=0,1,1,1.0696231712
 KON=2,1,1,0.7018682227 EISol=-4.4398989268 EHeat=0.2723305520 Alpha=1.3057107066
 DipHyp=1.5604255668
 GCore=0.0007103664,1.3530960858,3.3052741345
 GCore=0.0035011208,1.4594649216,3.6916853680
 GCore=-0.0014646050,1.4029293894,3.9678161791
 GCore=-0.0000888104,1.4186620265,4.8703566230
 ****
 O       
 PQN=2,2 NValence=6 F0ss=0.5210317224 F0sp=0.5389754337 F0pp=0.4997168457 F2pp=0.2346294866
 G1sp=0.4666493261
 ZetaOverlap=2.9834730820,2.3029731305
 U=-3.5025619594,-2.9290096463
 Beta=-1.0178374592,-1.1375823632 DDN=0,1,0.5393692205 DDN=1,1,0.4575288187
 CoreKO=0.8272668593 KON=0,0,0,0.9305360534 KON=1,0,1,0.4867217185 KON=0,1,1,0.8678328898
 KON=2,1,1,0.5820758184 EISol=-11.6164441184 EHeat=0.0949133088 Alpha=2.1296704724
 DipHyp=1.0786763802
 GCore=0.0179318094,1.2879144752,1.7473607510
 GCore=0.0052722859,2.0552364377,2.9739421482
 ****
 
 Standard basis: VSTO-6G (5D, 7F)
 Ernie: Thresh=  0.10000D-02 Tol=  0.10000D-05 Strict=F.
  NNHCO=     0 NNPyr=     0 NCTC=     0               EPep=         0.000000000
    EC=        70.966836316  ECS=         2.645727757   EG=         0.476600037
   EHC=         0.000000000  EAt=       -31.051283842  AtH=         1.516354808
 EPDDG=         0.000000000  ECC=        74.089164110 EAtT=        32.567638650
 There are    24 symmetry adapted cartesian basis functions of A   symmetry.
 There are    24 symmetry adapted basis functions of A   symmetry.
    24 basis functions,   144 primitive gaussians,    24 cartesian basis functions
    13 alpha electrons       13 beta electrons
       nuclear repulsion energy       106.6568027602 Hartrees.
 IExCor=    0 DFT=F Ex=HF Corr=None ExCW=0 ScaHFX=  1.000000
 ScaDFX=  1.000000  1.000000  1.000000  1.000000 ScalE2=  1.000000  1.000000
 IRadAn=      0 IRanWt=     -1 IRanGd=            0 ICorTp=0 IEmpDi=  4
 Integral buffers will be    131072 words long.
 Regular integral format.
 Two-electron integral symmetry is turned off.
 Leave Link  301 at Sun Feb 21 20:30:54 2016, MaxMem=    33554432 cpu:         0.0
 (Enter /opt/g09/g09/l302.exe)
 Do NDO integrals.
 NPDir=0 NMtPBC=     1 NCelOv=     1 NCel=       1 NClECP=     1 NCelD=      1
         NCelK=      1 NCelE2=     1 NClLst=     1 CellRange=     0.0.
 One-electron integrals computed using PRISM.
 NBasis=    24 RedAO= F EigKep=  0.00D+00  NBF=    24
 NBsUse=    24 1.00D-04 EigRej=  0.00D+00 NBFU=    24
 Leave Link  302 at Sun Feb 21 20:30:54 2016, MaxMem=    33554432 cpu:         0.0
 (Enter /opt/g09/g09/l303.exe)
 DipDrv:  MaxL=1.
 Leave Link  303 at Sun Feb 21 20:30:54 2016, MaxMem=    33554432 cpu:         0.0
 (Enter /opt/g09/g09/l401.exe)
 Simple Huckel Guess.
 JPrj=0 DoOrth=F DoCkMO=F.
 Leave Link  401 at Sun Feb 21 20:30:54 2016, MaxMem=    33554432 cpu:         0.0
 (Enter /opt/g09/g09/l502.exe)
 Closed shell SCF:
 Using DIIS extrapolation, IDIIS=  1040.
 Overlap will be assumed to be unity.
 Two-electron integral symmetry not used.
 Keep J ints in memory in canonical form, NReq=888082.
 IVT=       79475 IEndB=       79475 NGot=    33554432 MDV=    33473473
 LenX=    33473473 LenY=    33472456
 Requested convergence on RMS density matrix=1.00D-08 within 128 cycles.
 Requested convergence on MAX density matrix=1.00D-06.
 Requested convergence on             energy=1.00D-06.
 No special actions if energy rises.
 FoFCou: FMM=F IPFlag=           0 FMFlag=           0 FMFlg1=           0
         NFxFlg=           0 DoJE=F BraDBF=F KetDBF=F FulRan=T
         wScrn=  0.000000 ICntrl=     600 IOpCl=  2 I1Cent=           0 NGrid=           0
         NMat0=    1 NMatS0=     54 NMatT0=    0 NMatD0=    1 NMtDS0=    0 NMtDT0=    0
 Symmetry not used in FoFCou.

 Cycle   1  Pass 1  IDiag  1:
 E=-0.301317389003557    
 DIIS: error= 3.84D-02 at cycle   1 NSaved=   1.
 NSaved= 1 IEnMin= 1 EnMin=-0.301317389003557     IErMin= 1 ErrMin= 3.84D-02
 ErrMax= 3.84D-02  0.00D+00 EMaxC= 1.00D-01 BMatC= 9.10D-02 BMatP= 9.10D-02
 IDIUse=3 WtCom= 6.16D-01 WtEn= 3.84D-01
 Coeff-Com:  0.100D+01
 Coeff-En:   0.100D+01
 Coeff:      0.100D+01
 GapD=    2.000 DampG=2.000 DampE=0.500 DampFc=1.0000 IDamp=-1.
 RMSDP=2.13D-02 MaxDP=1.67D-01              OVMax= 0.00D+00

 Cycle   2  Pass 1  IDiag  1:
 E=-0.584975797710413     Delta-E=       -0.283658408707 Rises=F Damp=F
 DIIS: error= 1.96D-02 at cycle   2 NSaved=   2.
 NSaved= 2 IEnMin= 2 EnMin=-0.584975797710413     IErMin= 2 ErrMin= 1.96D-02
 ErrMax= 1.96D-02  0.00D+00 EMaxC= 1.00D-01 BMatC= 1.22D-02 BMatP= 9.10D-02
 IDIUse=3 WtCom= 8.04D-01 WtEn= 1.96D-01
 Coeff-Com: -0.434D+00 0.143D+01
 Coeff-En:   0.000D+00 0.100D+01
 Coeff:     -0.349D+00 0.135D+01
 RMSDP=1.24D-02 MaxDP=9.41D-02 DE=-2.84D-01 OVMax= 0.00D+00

 Cycle   3  Pass 1  IDiag  3:
 E=-0.643850336143032     Delta-E=       -0.058874538433 Rises=F Damp=F
 DIIS: error= 7.19D-03 at cycle   3 NSaved=   3.
 NSaved= 3 IEnMin= 3 EnMin=-0.643850336143032     IErMin= 3 ErrMin= 7.19D-03
 ErrMax= 7.19D-03  0.00D+00 EMaxC= 1.00D-01 BMatC= 1.40D-03 BMatP= 1.22D-02
 IDIUse=3 WtCom= 9.28D-01 WtEn= 7.19D-02
 Coeff-Com:  0.300D+00-0.125D+01 0.195D+01
 Coeff-En:   0.000D+00 0.000D+00 0.100D+01
 Coeff:      0.278D+00-0.116D+01 0.188D+01
 Gap=     0.395 Goal=   None    Shift=    0.000
 RMSDP=7.53D-03 MaxDP=7.42D-02 DE=-5.89D-02 OVMax= 9.44D-02

 Cycle   4  Pass 1  IDiag  3:
 E=-0.655066263309450     Delta-E=       -0.011215927166 Rises=F Damp=F
 DIIS: error= 1.53D-03 at cycle   4 NSaved=   4.
 NSaved= 4 IEnMin= 4 EnMin=-0.655066263309450     IErMin= 4 ErrMin= 1.53D-03
 ErrMax= 1.53D-03  0.00D+00 EMaxC= 1.00D-01 BMatC= 6.97D-05 BMatP= 1.40D-03
 IDIUse=3 WtCom= 9.85D-01 WtEn= 1.53D-02
 Coeff-Com: -0.623D-01 0.281D+00-0.647D+00 0.143D+01
 Coeff-En:   0.000D+00 0.000D+00 0.000D+00 0.100D+01
 Coeff:     -0.613D-01 0.277D+00-0.637D+00 0.142D+01
 Gap=     0.397 Goal=   None    Shift=    0.000
 RMSDP=1.82D-03 MaxDP=1.89D-02 DE=-1.12D-02 OVMax= 2.24D-02

 Cycle   5  Pass 1  IDiag  3:
 E=-0.655634683347373     Delta-E=       -0.000568420038 Rises=F Damp=F
 DIIS: error= 2.55D-04 at cycle   5 NSaved=   5.
 NSaved= 5 IEnMin= 5 EnMin=-0.655634683347373     IErMin= 5 ErrMin= 2.55D-04
 ErrMax= 2.55D-04  0.00D+00 EMaxC= 1.00D-01 BMatC= 3.61D-06 BMatP= 6.97D-05
 IDIUse=3 WtCom= 9.97D-01 WtEn= 2.55D-03
 Coeff-Com:  0.340D-02-0.169D-01 0.877D-01-0.466D+00 0.139D+01
 Coeff-En:   0.000D+00 0.000D+00 0.000D+00 0.000D+00 0.100D+01
 Coeff:      0.339D-02-0.168D-01 0.875D-01-0.464D+00 0.139D+01
 Gap=     0.397 Goal=   None    Shift=    0.000
 RMSDP=3.46D-04 MaxDP=2.89D-03 DE=-5.68D-04 OVMax= 2.95D-03

 Cycle   6  Pass 1  IDiag  3:
 E=-0.655657809150611     Delta-E=       -0.000023125803 Rises=F Damp=F
 DIIS: error= 6.63D-05 at cycle   6 NSaved=   6.
 NSaved= 6 IEnMin= 6 EnMin=-0.655657809150611     IErMin= 6 ErrMin= 6.63D-05
 ErrMax= 6.63D-05  0.00D+00 EMaxC= 1.00D-01 BMatC= 1.53D-07 BMatP= 3.61D-06
 IDIUse=1 WtCom= 1.00D+00 WtEn= 0.00D+00
 Coeff-Com:  0.133D-02-0.634D-02-0.937D-03 0.887D-01-0.433D+00 0.135D+01
 Coeff:      0.133D-02-0.634D-02-0.937D-03 0.887D-01-0.433D+00 0.135D+01
 Gap=     0.397 Goal=   None    Shift=    0.000
 RMSDP=6.30D-05 MaxDP=3.04D-04 DE=-2.31D-05 OVMax= 6.26D-04

 Cycle   7  Pass 1  IDiag  3:
 E=-0.655658791938578     Delta-E=       -0.000000982788 Rises=F Damp=F
 DIIS: error= 2.51D-05 at cycle   7 NSaved=   7.
 NSaved= 7 IEnMin= 7 EnMin=-0.655658791938578     IErMin= 7 ErrMin= 2.51D-05
 ErrMax= 2.51D-05  0.00D+00 EMaxC= 1.00D-01 BMatC= 1.38D-08 BMatP= 1.53D-07
 IDIUse=1 WtCom= 1.00D+00 WtEn= 0.00D+00
 Coeff-Com: -0.778D-03 0.399D-02-0.451D-02-0.154D-01 0.124D+00-0.635D+00
 Coeff-Com:  0.153D+01
 Coeff:     -0.778D-03 0.399D-02-0.451D-02-0.154D-01 0.124D+00-0.635D+00
 Coeff:      0.153D+01
 Gap=     0.397 Goal=   None    Shift=    0.000
 RMSDP=2.31D-05 MaxDP=1.26D-04 DE=-9.83D-07 OVMax= 2.50D-04

 Cycle   8  Pass 1  IDiag  3:
 E=-0.655658900177031     Delta-E=       -0.000000108238 Rises=F Damp=F
 DIIS: error= 6.23D-06 at cycle   8 NSaved=   8.
 NSaved= 8 IEnMin= 8 EnMin=-0.655658900177031     IErMin= 8 ErrMin= 6.23D-06
 ErrMax= 6.23D-06  0.00D+00 EMaxC= 1.00D-01 BMatC= 9.74D-10 BMatP= 1.38D-08
 IDIUse=1 WtCom= 1.00D+00 WtEn= 0.00D+00
 Coeff-Com:  0.195D-03-0.115D-02 0.208D-02-0.152D-02-0.144D-01 0.147D+00
 Coeff-Com: -0.610D+00 0.148D+01
 Coeff:      0.195D-03-0.115D-02 0.208D-02-0.152D-02-0.144D-01 0.147D+00
 Coeff:     -0.610D+00 0.148D+01
 Gap=     0.397 Goal=   None    Shift=    0.000
 RMSDP=6.75D-06 MaxDP=3.63D-05 DE=-1.08D-07 OVMax= 7.80D-05

 Cycle   9  Pass 1  IDiag  3:
 E=-0.655658907914813     Delta-E=       -0.000000007738 Rises=F Damp=F
 DIIS: error= 8.20D-07 at cycle   9 NSaved=   9.
 NSaved= 9 IEnMin= 9 EnMin=-0.655658907914813     IErMin= 9 ErrMin= 8.20D-07
 ErrMax= 8.20D-07  0.00D+00 EMaxC= 1.00D-01 BMatC= 3.92D-11 BMatP= 9.74D-10
 IDIUse=1 WtCom= 1.00D+00 WtEn= 0.00D+00
 Coeff-Com: -0.297D-04 0.206D-03-0.531D-03 0.156D-02-0.247D-02-0.110D-01
 Coeff-Com:  0.988D-01-0.442D+00 0.136D+01
 Coeff:     -0.297D-04 0.206D-03-0.531D-03 0.156D-02-0.247D-02-0.110D-01
 Coeff:      0.988D-01-0.442D+00 0.136D+01
 Gap=     0.397 Goal=   None    Shift=    0.000
 RMSDP=1.22D-06 MaxDP=7.28D-06 DE=-7.74D-09 OVMax= 1.34D-05

 Cycle  10  Pass 1  IDiag  3:
 E=-0.655658908179944     Delta-E=       -0.000000000265 Rises=F Damp=F
 DIIS: error= 1.76D-07 at cycle  10 NSaved=  10.
 NSaved=10 IEnMin=10 EnMin=-0.655658908179944     IErMin=10 ErrMin= 1.76D-07
 ErrMax= 1.76D-07  0.00D+00 EMaxC= 1.00D-01 BMatC= 1.69D-12 BMatP= 3.92D-11
 IDIUse=1 WtCom= 1.00D+00 WtEn= 0.00D+00
 Coeff-Com:  0.800D-05-0.632D-04 0.185D-03-0.657D-03 0.143D-02 0.102D-02
 Coeff-Com: -0.270D-01 0.156D+00-0.623D+00 0.149D+01
 Coeff:      0.800D-05-0.632D-04 0.185D-03-0.657D-03 0.143D-02 0.102D-02
 Coeff:     -0.270D-01 0.156D+00-0.623D+00 0.149D+01
 Gap=     0.397 Goal=   None    Shift=    0.000
 RMSDP=2.27D-07 MaxDP=1.70D-06 DE=-2.65D-10 OVMax= 1.99D-06

 Cycle  11  Pass 1  IDiag  3:
 E=-0.655658908191001     Delta-E=       -0.000000000011 Rises=F Damp=F
 DIIS: error= 3.77D-08 at cycle  11 NSaved=  11.
 NSaved=11 IEnMin=11 EnMin=-0.655658908191001     IErMin=11 ErrMin= 3.77D-08
 ErrMax= 3.77D-08  0.00D+00 EMaxC= 1.00D-01 BMatC= 9.62D-14 BMatP= 1.69D-12
 IDIUse=1 WtCom= 1.00D+00 WtEn= 0.00D+00
 Coeff-Com: -0.352D-05 0.276D-04-0.823D-04 0.303D-03-0.697D-03 0.751D-04
 Coeff-Com:  0.947D-02-0.618D-01 0.265D+00-0.770D+00 0.156D+01
 Coeff:     -0.352D-05 0.276D-04-0.823D-04 0.303D-03-0.697D-03 0.751D-04
 Coeff:      0.947D-02-0.618D-01 0.265D+00-0.770D+00 0.156D+01
 Gap=     0.397 Goal=   None    Shift=    0.000
 RMSDP=6.15D-08 MaxDP=4.36D-07 DE=-1.11D-11 OVMax= 6.14D-07

 Cycle  12  Pass 1  IDiag  3:
 E=-0.655658908191811     Delta-E=       -0.000000000001 Rises=F Damp=F
 DIIS: error= 1.30D-08 at cycle  12 NSaved=  12.
 NSaved=12 IEnMin=12 EnMin=-0.655658908191811     IErMin=12 ErrMin= 1.30D-08
 ErrMax= 1.30D-08  0.00D+00 EMaxC= 1.00D-01 BMatC= 7.03D-15 BMatP= 9.62D-14
 IDIUse=1 WtCom= 1.00D+00 WtEn= 0.00D+00
 Coeff-Com:  0.146D-05-0.104D-04 0.292D-04-0.101D-03 0.225D-03-0.631D-04
 Coeff-Com: -0.267D-02 0.185D-01-0.826D-01 0.261D+00-0.729D+00 0.153D+01
 Coeff:      0.146D-05-0.104D-04 0.292D-04-0.101D-03 0.225D-03-0.631D-04
 Coeff:     -0.267D-02 0.185D-01-0.826D-01 0.261D+00-0.729D+00 0.153D+01
 Gap=     0.397 Goal=   None    Shift=    0.000
 RMSDP=1.92D-08 MaxDP=1.33D-07 DE=-8.10D-13 OVMax= 2.03D-07

 Cycle  13  Pass 1  IDiag  3:
 E=-0.655658908191796     Delta-E=        0.000000000000 Rises=F Damp=F
 DIIS: error= 3.24D-09 at cycle  13 NSaved=  13.
 NSaved=13 IEnMin=12 EnMin=-0.655658908191811     IErMin=13 ErrMin= 3.24D-09
 ErrMax= 3.24D-09  0.00D+00 EMaxC= 1.00D-01 BMatC= 5.01D-16 BMatP= 7.03D-15
 IDIUse=1 WtCom= 1.00D+00 WtEn= 0.00D+00
 Coeff-Com: -0.300D-06 0.169D-05-0.367D-05 0.890D-05-0.135D-04 0.428D-05
 Coeff-Com:  0.703D-04-0.750D-03 0.466D-02-0.218D-01 0.108D+00-0.494D+00
 Coeff-Com:  0.140D+01
 Coeff:     -0.300D-06 0.169D-05-0.367D-05 0.890D-05-0.135D-04 0.428D-05
 Coeff:      0.703D-04-0.750D-03 0.466D-02-0.218D-01 0.108D+00-0.494D+00
 Coeff:      0.140D+01
 Gap=     0.397 Goal=   None    Shift=    0.000
 RMSDP=4.94D-09 MaxDP=4.25D-08 DE= 1.42D-14 OVMax= 4.86D-08

 Cycle  14  Pass 2  IDiag  1:
 SCF Done:  E(RAM1) = -0.655658908192     A.U. after   14 cycles
            NFock= 13  Conv=0.49D-08     -V/T= 0.9632
 KE=-1.781217698230D+01 PE=-1.759631916949D+02 EE= 8.646290700877D+01
 Leave Link  502 at Sun Feb 21 20:30:54 2016, MaxMem=    33554432 cpu:         0.0
 (Enter /opt/g09/g09/l801.exe)
 Range of M.O.s used for correlation:     1    24
 NBasis=    24 NAE=    13 NBE=    13 NFC=     0 NFV=     0
 NROrb=     24 NOA=    13 NOB=    13 NVA=    11 NVB=    11
 Leave Link  801 at Sun Feb 21 20:30:54 2016, MaxMem=    33554432 cpu:         0.0
 (Enter /opt/g09/g09/l1101.exe)
 Using compressed storage, NAtomX=     9.
 Will process     10 centers per pass.
 Leave Link 1101 at Sun Feb 21 20:30:54 2016, MaxMem=    33554432 cpu:         0.0
 (Enter /opt/g09/g09/l1102.exe)
 Symmetrizing basis deriv contribution to polar:
 IMax=3 JMax=2 DiffMx= 0.00D+00
 Leave Link 1102 at Sun Feb 21 20:30:54 2016, MaxMem=    33554432 cpu:         0.0
 (Enter /opt/g09/g09/l1110.exe)
 Forming Gx(P) for the SCF density, NAtomX=     9.
 Integral derivatives from FoFJK, PRISM(SPDF).
 Do as many integral derivatives as possible in FoFJK.
 G2DrvN: MDV=      33495365.
 G2DrvN: will do    10 centers at a time, making    1 passes.
 Calling FoFCou, ICntrl=  3107 FMM=F I1Cent=   0 AccDes= 0.00D+00.
 FoFJK:  IHMeth= 8 ICntrl=    3107 DoSepK=F KAlg= 0 I1Cent=   0 FoldK=F
 IRaf=         0 NMat=   1 IRICut=       1 DoRegI=T DoRafI=F ISym2E= 0.
 FoFCou: FMM=F IPFlag=           0 FMFlag=      100000 FMFlg1=           0
         NFxFlg=           0 DoJE=F BraDBF=F KetDBF=F FulRan=T
         wScrn=  0.000000 ICntrl=    3107 IOpCl=  0 I1Cent=           0 NGrid=           0
         NMat0=    1 NMatS0=      1 NMatT0=    0 NMatD0=    1 NMtDS0=    0 NMtDT0=    0
 Symmetry not used in FoFCou.
 End of G2Drv F.D. properties file   721 does not exist.
 End of G2Drv F.D. properties file   722 does not exist.
 End of G2Drv F.D. properties file   788 does not exist.
 Leave Link 1110 at Sun Feb 21 20:30:54 2016, MaxMem=    33554432 cpu:         0.0
 (Enter /opt/g09/g09/l1002.exe)
 Minotr:  Closed shell wavefunction.
          IDoAtm=111111111
          Direct CPHF calculation.
          Differentiating once with respect to electric field.
                with respect to dipole field.
          Differentiating once with respect to nuclear coordinates.
          Electric field/nuclear overlap derivatives assumed to be zero.
          Requested convergence is 1.0D-08 RMS, and 1.0D-07 maximum.
          NewPWx=T KeepS1=F KeepF1=F KeepIn=T MapXYZ=F SortEE=F KeepMc=T.
          MDV=      33495423 using IRadAn=       2.
 Keep J ints in memory in canonical form, NReq=871704.
 FoFCou: FMM=F IPFlag=           0 FMFlag=           0 FMFlg1=           0
         NFxFlg=           0 DoJE=F BraDBF=F KetDBF=F FulRan=T
         wScrn=  0.000000 ICntrl=     600 IOpCl=  2 I1Cent=           0 NGrid=           0
         NMat0=    1 NMatS0=     54 NMatT0=    0 NMatD0=    1 NMtDS0=    0 NMtDT0=    0
 Symmetry not used in FoFCou.
          Solving linear equations separately, MaxMat=       0.
          There are    30 degrees of freedom in the 1st order CPHF.  IDoFFX=5 NUNeed=    30.
 LinEq1:  Iter=  0 NonCon=    30 RMS=3.89D-01 Max=2.40D+00 NDo=    30
 AX will form    30 AO Fock derivatives at one time.
 LinEq1:  Iter=  1 NonCon=    30 RMS=5.21D-02 Max=2.15D-01 NDo=    30
 LinEq1:  Iter=  2 NonCon=    30 RMS=4.94D-03 Max=2.61D-02 NDo=    30
 LinEq1:  Iter=  3 NonCon=    30 RMS=8.52D-04 Max=4.53D-03 NDo=    30
 LinEq1:  Iter=  4 NonCon=    30 RMS=1.37D-04 Max=7.17D-04 NDo=    30
 LinEq1:  Iter=  5 NonCon=    30 RMS=2.45D-05 Max=1.08D-04 NDo=    30
 LinEq1:  Iter=  6 NonCon=    30 RMS=3.22D-06 Max=1.22D-05 NDo=    30
 LinEq1:  Iter=  7 NonCon=    23 RMS=3.77D-07 Max=1.33D-06 NDo=    30
 LinEq1:  Iter=  8 NonCon=     3 RMS=4.27D-08 Max=1.76D-07 NDo=    30
 LinEq1:  Iter=  9 NonCon=     0 RMS=6.28D-09 Max=1.99D-08 NDo=    30
 Linear equations converged to 1.000D-08 1.000D-07 after     9 iterations.
 FullF1:  Do perturbations    1 to     3.
 Isotropic polarizability for W=    0.000000       30.76 Bohr**3.
 End of Minotr F.D. properties file   721 does not exist.
 End of Minotr F.D. properties file   722 does not exist.
 End of Minotr F.D. properties file   788 does not exist.
 Leave Link 1002 at Sun Feb 21 20:30:54 2016, MaxMem=    33554432 cpu:         0.0
 (Enter /opt/g09/g09/l601.exe)
 Copying SCF densities to generalized density rwf, IOpCl= 0 IROHF=0.

 **********************************************************************

            Population analysis using the SCF density.

 **********************************************************************

 Orbital symmetries:
       Occupied  (A) (A) (A) (A) (A) (A) (A) (A) (A) (A) (A) (A)
                 (A)
       Virtual   (A) (A) (A) (A) (A) (A) (A) (A) (A) (A) (A)
 The electronic state is 1-A.
 Alpha  occ. eigenvalues --   -1.73270  -1.20882  -1.18800  -0.86233  -0.79885
 Alpha  occ. eigenvalues --   -0.79003  -0.74642  -0.61310  -0.57230  -0.55070
 Alpha  occ. eigenvalues --   -0.50059  -0.43841  -0.42253
 Alpha virt. eigenvalues --   -0.02585   0.00791   0.03559   0.07789   0.12593
 Alpha virt. eigenvalues --    0.15240   0.16355   0.20454   0.21103   0.23532
 Alpha virt. eigenvalues --    0.24927
          Condensed to atoms (all electrons):
               1          2          3          4          5          6
     1  C    4.386220   0.000000   0.000000   0.000000   0.000000   0.000000
     2  C    0.000000   4.635523   0.000000   0.000000   0.000000   0.000000
     3  O    0.000000   0.000000   5.330887   0.000000   0.000000   0.000000
     4  C    0.000000   0.000000   0.000000   4.661017   0.000000   0.000000
     5  C    0.000000   0.000000   0.000000   0.000000   4.438615   0.000000
     6  H    0.000000   0.000000   0.000000   0.000000   0.000000   0.654898
     7  H    0.000000   0.000000   0.000000   0.000000   0.000000   0.000000
     8  H    0.000000   0.000000   0.000000   0.000000   0.000000   0.000000
     9  H    0.000000   0.000000   0.000000   0.000000   0.000000   0.000000
               7          8          9
     1  C    0.000000   0.000000   0.000000
     2  C    0.000000   0.000000   0.000000
     3  O    0.000000   0.000000   0.000000
     4  C    0.000000   0.000000   0.000000
     5  C    0.000000   0.000000   0.000000
     6  H    0.000000   0.000000   0.000000
     7  H    0.556399   0.000000   0.000000
     8  H    0.000000   0.664405   0.000000
     9  H    0.000000   0.000000   0.672036
 Mulliken charges:
               1
     1  C   -0.386220
     2  C   -0.635523
     3  O    0.669113
     4  C   -0.661017
     5  C   -0.438615
     6  H    0.345102
     7  H    0.443601
     8  H    0.335595
     9  H    0.327964
 Sum of Mulliken charges =   0.00000
 Mulliken charges with hydrogens summed into heavy atoms:
               1
     1  C   -0.058256
     2  C   -0.299928
     3  O    0.669113
     4  C   -0.217416
     5  C   -0.093513
 APT charges:
               1
     1  C   -0.254514
     2  C   -0.760177
     3  O    0.532689
     4  C   -0.783646
     5  C   -0.374304
     6  H    0.374051
     7  H    0.517975
     8  H    0.398289
     9  H    0.349637
 Sum of APT charges =   0.00000
 APT charges with hydrogens summed into heavy atoms:
               1
     1  C    0.095123
     2  C   -0.361888
     3  O    0.532689
     4  C   -0.265671
     5  C   -0.000253
 Charge=              0.0000 electrons
 Dipole moment (field-independent basis, Debye):
    X=             -2.0233    Y=             -1.6902    Z=              0.4539  Tot=              2.6752
 N-N= 1.066568027602D+02 E-N=-1.759631916665D+02  KE=-1.781217698230D+01
  Exact polarizability:  48.412   3.662  34.609  -2.027   0.285   9.271
 Approx polarizability:  43.534   2.855  26.971  -2.849   0.092   6.531
 Leave Link  601 at Sun Feb 21 20:30:54 2016, MaxMem=    33554432 cpu:         0.0
 (Enter /opt/g09/g09/l701.exe)
 Compute integral second derivatives.
 ... and contract with generalized density number  0.
 Leave Link  701 at Sun Feb 21 20:30:54 2016, MaxMem=    33554432 cpu:         0.0
 (Enter /opt/g09/g09/l702.exe)
 L702 exits ... SP integral derivatives will be done elsewhere.
 Leave Link  702 at Sun Feb 21 20:30:54 2016, MaxMem=    33554432 cpu:         0.0
 (Enter /opt/g09/g09/l703.exe)
 Compute integral second derivatives, UseDBF=F ICtDFT=           0.
 Integral derivatives from FoFJK, PRISM(SPDF).
 Calling FoFJK, ICntrl=    100127 FMM=F ISym2X=0 I1Cent= 0 IOpClX= 0 NMat=1 NMatS=1 NMatT=0.
 FoFJK:  IHMeth= 8 ICntrl=  100127 DoSepK=F KAlg= 0 I1Cent=   0 FoldK=F
 IRaf=         0 NMat=   1 IRICut=       1 DoRegI=T DoRafI=F ISym2E= 0.
 FoFCou: FMM=F IPFlag=           0 FMFlag=      100000 FMFlg1=         800
         NFxFlg=           0 DoJE=F BraDBF=F KetDBF=F FulRan=T
         wScrn=  0.000000 ICntrl=  100127 IOpCl=  0 I1Cent=           0 NGrid=           0
         NMat0=    1 NMatS0=      1 NMatT0=    0 NMatD0=    1 NMtDS0=    0 NMtDT0=    0
 Symmetry not used in FoFCou.
 Leave Link  703 at Sun Feb 21 20:30:54 2016, MaxMem=    33554432 cpu:         0.0
 (Enter /opt/g09/g09/l716.exe)
 Dipole        =-7.96021312D-01-6.64974547D-01 1.78579616D-01
 Polarizability= 4.84116238D+01 3.66168496D+00 3.46088989D+01
                -2.02669649D+00 2.84981233D-01 9.27070474D+00
 HyperPolar    = 2.22749307D+00-2.48222266D+01-4.55756811D+01
                 1.57664057D+01-4.30460145D+00 8.18480378D+00
                 1.49467034D+00 1.31182105D+00 1.46042322D+00
                 3.12836396D-01
 Full mass-weighted force constant matrix:
 Low frequencies ----1708.7361-1364.3893 -748.4913 -668.5392 -499.3706 -475.1041
 Low frequencies --- -207.2352   -0.0006   -0.0006
 ******    4 imaginary frequencies (negative Signs) ****** 
 Diagonal vibrational polarizability:
       13.6947492       7.9410250      14.0757238
 Harmonic frequencies (cm**-1), IR intensities (KM/Mole), Raman scattering
 activities (A**4/AMU), depolarization ratios for plane and unpolarized
 incident light, reduced masses (AMU), force constants (mDyne/A),
 and normal coordinates:
                      1                      2                      3
                      A                      A                      A
 Frequencies --  -1686.7047             -1337.5025              -726.4284
 Red. masses --      1.1051                 1.0938                 1.1513
 Frc consts  --      1.8524                 1.1529                 0.3580
 IR Inten    --    189.5332                68.4983               124.8986
  Atom  AN      X      Y      Z        X      Y      Z        X      Y      Z
     1   6     0.00   0.00   0.01     0.00   0.01  -0.01    -0.01  -0.01   0.05
     2   6    -0.02   0.02   0.08     0.04   0.06  -0.01     0.00   0.00   0.06
     3   8     0.00   0.00   0.02     0.01   0.04  -0.01     0.00  -0.01  -0.05
     4   6     0.00   0.00  -0.01     0.00  -0.02   0.02     0.00  -0.01  -0.02
     5   6     0.00   0.00  -0.03    -0.01  -0.02   0.00     0.00   0.00   0.06
     6   1     0.00  -0.01  -0.05    -0.02  -0.03   0.00     0.00  -0.01   0.04
     7   1     0.00   0.00  -0.03     0.01  -0.03   0.03     0.00   0.00  -0.05
     8   1     0.33  -0.27  -0.90    -0.39  -0.90   0.13     0.02   0.02   0.04
     9   1    -0.02   0.01  -0.01    -0.06   0.03  -0.04     0.11   0.27  -0.95
                      4                      5                      6
                      A                      A                      A
 Frequencies --   -497.4946               417.0285               559.4590
 Red. masses --      6.8940                 1.1025                 4.6803
 Frc consts  --      1.0053                 0.1130                 0.8631
 IR Inten    --     15.2543                45.2793                 7.4437
  Atom  AN      X      Y      Z        X      Y      Z        X      Y      Z
     1   6    -0.01   0.00   0.00     0.07  -0.01   0.00     0.00  -0.02   0.40
     2   6     0.00   0.01  -0.28     0.01  -0.02  -0.02    -0.02   0.01  -0.30
     3   8     0.05   0.01   0.42    -0.02   0.00   0.01    -0.01   0.01   0.07
     4   6    -0.06  -0.04  -0.43    -0.02   0.01  -0.01     0.00   0.00   0.12
     5   6     0.00   0.02   0.17     0.04   0.00   0.02     0.02  -0.02  -0.24
     6   1    -0.03   0.09   0.44     0.06   0.03   0.01     0.13  -0.08  -0.70
     7   1    -0.03  -0.02  -0.44    -0.03   0.03  -0.02     0.00   0.00   0.19
     8   1    -0.10  -0.10  -0.14     0.03   0.04  -0.01    -0.08   0.02  -0.14
     9   1     0.24   0.03  -0.19    -0.98   0.15  -0.07     0.03   0.16  -0.25
                      7                      8                      9
                      A                      A                      A
 Frequencies --    836.8893               916.5979              1038.7251
 Red. masses --      5.8963                 7.2933                 1.3292
 Frc consts  --      2.4331                 3.6102                 0.8449
 IR Inten    --      9.0180                 4.4893               110.8690
  Atom  AN      X      Y      Z        X      Y      Z        X      Y      Z
     1   6     0.18   0.23  -0.04     0.01  -0.28  -0.01    -0.01  -0.01  -0.04
     2   6    -0.13   0.12   0.02     0.35  -0.13  -0.01     0.00   0.00  -0.01
     3   8    -0.11   0.11  -0.02    -0.05   0.45  -0.01     0.01  -0.01   0.00
     4   6    -0.25  -0.28   0.02    -0.21  -0.08   0.03     0.02   0.02  -0.01
     5   6     0.31  -0.21   0.03    -0.14  -0.07   0.02    -0.03   0.03   0.16
     6   1     0.42  -0.17  -0.21     0.03   0.10  -0.09     0.15  -0.18  -0.94
     7   1    -0.17  -0.30   0.03     0.08  -0.37  -0.06     0.00   0.03  -0.14
     8   1    -0.09   0.20  -0.01     0.46   0.17  -0.01     0.00  -0.02  -0.01
     9   1     0.33   0.17   0.11     0.11  -0.28  -0.08     0.00  -0.04   0.06
                     10                     11                     12
                      A                      A                      A
 Frequencies --   1197.0615              1236.7596              1342.7619
 Red. masses --      1.1014                 1.2064                 1.1477
 Frc consts  --      0.9299                 1.0872                 1.2193
 IR Inten    --     51.3149               138.3035               111.7352
  Atom  AN      X      Y      Z        X      Y      Z        X      Y      Z
     1   6    -0.05  -0.03  -0.01     0.00   0.01  -0.02     0.03   0.04   0.01
     2   6    -0.02   0.04   0.00    -0.01   0.00  -0.03    -0.03  -0.05   0.00
     3   8     0.02  -0.02   0.00    -0.01   0.00   0.02    -0.04  -0.01   0.00
     4   6     0.01  -0.03   0.01     0.01   0.00   0.12     0.01   0.03  -0.01
     5   6    -0.02  -0.01   0.00     0.00  -0.01  -0.02    -0.01   0.06   0.00
     6   1     0.61   0.78  -0.04     0.02   0.05   0.09    -0.04   0.03  -0.01
     7   1     0.04  -0.08   0.06    -0.02  -0.05  -0.98     0.60  -0.79   0.02
     8   1    -0.03   0.01   0.00    -0.01   0.00  -0.02    -0.03  -0.04   0.00
     9   1    -0.02  -0.04  -0.01     0.01   0.01  -0.04    -0.01   0.04   0.01
                     13                     14                     15
                      A                      A                      A
 Frequencies --   1514.1780              1595.8895              1787.7438
 Red. masses --      7.7341                 5.8974                 1.1126
 Frc consts  --     10.4475                 8.8494                 2.0951
 IR Inten    --     26.5385                 5.4805               623.3261
  Atom  AN      X      Y      Z        X      Y      Z        X      Y      Z
     1   6     0.46  -0.36  -0.01     0.29   0.34   0.03     0.02   0.01   0.00
     2   6    -0.19   0.42   0.02     0.10  -0.18  -0.01    -0.04  -0.03   0.00
     3   8     0.01  -0.04   0.01     0.02  -0.04   0.00    -0.01   0.03   0.00
     4   6    -0.03   0.05   0.00     0.02  -0.08   0.00    -0.01   0.00   0.00
     5   6    -0.23  -0.02  -0.01    -0.42  -0.10  -0.01    -0.02  -0.07   0.00
     6   1    -0.27  -0.09   0.01    -0.05   0.40  -0.05     0.04   0.02   0.01
     7   1     0.03  -0.16  -0.03    -0.46   0.08   0.03     0.79   0.60  -0.04
     8   1    -0.24   0.28   0.02     0.14  -0.05   0.01    -0.03   0.00   0.00
     9   1     0.17  -0.33  -0.10     0.15   0.36   0.04     0.02   0.01   0.00
                     16                     17                     18
                      A                      A                      A
 Frequencies --   2030.2572              2096.6298              2545.8428
 Red. masses --      6.9204                 8.5869                12.0411
 Frc consts  --     16.8068                22.2397                45.9810
 IR Inten    --    111.3423                15.0261               169.1875
  Atom  AN      X      Y      Z        X      Y      Z        X      Y      Z
     1   6    -0.03   0.02   0.01    -0.05   0.07   0.00     0.00   0.00   0.00
     2   6    -0.02  -0.01   0.00     0.47   0.25  -0.04    -0.29  -0.23   0.01
     3   8    -0.11   0.06   0.01    -0.05  -0.35  -0.01     0.62   0.05  -0.06
     4   6     0.16   0.47  -0.07    -0.43   0.18   0.04    -0.50   0.25   0.06
     5   6     0.02  -0.51   0.04     0.00  -0.05   0.01     0.00  -0.06   0.01
     6   1     0.43  -0.19   0.11    -0.02  -0.03   0.00    -0.05  -0.04  -0.01
     7   1    -0.29  -0.38   0.05     0.46   0.01  -0.03    -0.09  -0.24  -0.02
     8   1    -0.03   0.01   0.00     0.35   0.04   0.03    -0.21  -0.16   0.02
     9   1     0.09  -0.02   0.00     0.08   0.08   0.02    -0.03  -0.02  -0.02
                     19                     20                     21
                      A                      A                      A
 Frequencies --   3222.4706              4135.9533              4982.7080
 Red. masses --      1.1010                 1.0874                 1.0806
 Frc consts  --      6.7359                10.9591                15.8062
 IR Inten    --    345.0317               290.1921               372.0022
  Atom  AN      X      Y      Z        X      Y      Z        X      Y      Z
     1   6     0.00   0.00   0.00     0.01   0.08   0.02     0.00   0.00   0.00
     2   6     0.00   0.00   0.00     0.00   0.00   0.00    -0.07   0.03  -0.03
     3   8     0.00   0.00   0.00     0.00   0.00   0.00     0.00   0.00   0.00
     4   6    -0.01  -0.01   0.00     0.00   0.00   0.00     0.00   0.00   0.00
     5   6    -0.07   0.06  -0.02     0.00   0.00   0.00     0.00   0.00   0.00
     6   1     0.76  -0.59   0.24     0.01   0.00   0.00     0.00   0.00   0.00
     7   1     0.01   0.00   0.00     0.00   0.00   0.00     0.00   0.00   0.00
     8   1     0.00   0.00   0.00     0.01   0.00   0.00     0.85  -0.32   0.41
     9   1     0.00   0.01   0.00    -0.12  -0.95  -0.28     0.00   0.00   0.00

 -------------------
 - Thermochemistry -
 -------------------
 Temperature   298.150 Kelvin.  Pressure   1.00000 Atm.
 Atom     1 has atomic number  6 and mass  12.00000
 Atom     2 has atomic number  6 and mass  12.00000
 Atom     3 has atomic number  8 and mass  15.99491
 Atom     4 has atomic number  6 and mass  12.00000
 Atom     5 has atomic number  6 and mass  12.00000
 Atom     6 has atomic number  1 and mass   1.00783
 Atom     7 has atomic number  1 and mass   1.00783
 Atom     8 has atomic number  1 and mass   1.00783
 Atom     9 has atomic number  1 and mass   1.00783
 Molecular mass:    68.02621 amu.
 Principal axes and moments of inertia in atomic units:
                           1         2         3
     Eigenvalues --   168.48678 188.08944 352.51923
           X            0.99363   0.11018   0.02370
           Y           -0.11022   0.99391   0.00061
           Z           -0.02349  -0.00322   0.99972
 This molecule is an asymmetric top.
 Rotational symmetry number  1.
 Rotational temperatures (Kelvin)      0.51407     0.46049     0.24570
 Rotational constants (GHZ):          10.71147     9.59512     5.11955
    4 imaginary frequencies ignored.
 Zero-point vibrational energy     188154.4 (Joules/Mol)
                                   44.96998 (Kcal/Mol)
 Warning -- explicit consideration of   2 degrees of freedom as
           vibrations may cause significant error
 Vibrational temperatures:    600.01   804.94  1204.10  1318.78  1494.49
          (Kelvin)           1722.30  1779.42  1931.93  2178.56  2296.13
                             2572.16  2921.08  3016.58  3662.90  4636.41
                             5950.71  7169.00
 
 Zero-point correction=                           0.071664 (Hartree/Particle)
 Thermal correction to Energy=                    0.075176
 Thermal correction to Enthalpy=                  0.076120
 Thermal correction to Gibbs Free Energy=         0.045503
 Sum of electronic and zero-point Energies=             -0.583995
 Sum of electronic and thermal Energies=                -0.580483
 Sum of electronic and thermal Enthalpies=              -0.579539
 Sum of electronic and thermal Free Energies=           -0.610156
 
                     E (Thermal)             CV                S
                      KCal/Mol        Cal/Mol-Kelvin    Cal/Mol-Kelvin
 Total                   47.173             10.609             64.439
 Electronic               0.000              0.000              0.000
 Translational            0.889              2.981             38.570
 Rotational               0.889              2.981             23.928
 Vibrational             45.396              4.647              1.942
 Vibration     1          0.780              1.433              0.902
 Vibration     2          0.915              1.119              0.525
                       Q            Log10(Q)             Ln(Q)
 Total Bot       0.117577D-20        -20.929676        -48.192360
 Total V=0       0.108020D+13         12.033506         27.708171
 Vib (Bot)       0.140913D-32        -32.851048        -75.642334
 Vib (Bot)    1  0.422003D+00         -0.374684         -0.862743
 Vib (Bot)    2  0.277955D+00         -0.556026         -1.280297
 Vib (V=0)       0.129459D+01          0.112133          0.258196
 Vib (V=0)    1  0.115428D+01          0.062312          0.143480
 Vib (V=0)    2  0.107207D+01          0.030221          0.069587
 Electronic      0.100000D+01          0.000000          0.000000
 Translational   0.220531D+08          7.343470         16.908964
 Rotational      0.378358D+05          4.577903         10.541011
 
                                                          AM1-Reparam Input
                                                             IR Spectrum
 
     4                     4                      3                 2          2 2     1    1 1   1  11   1                          
     9                     1                      2                 5          0 0     7    5 5   3  21   0  9 8      5   4          
     8                     3                      2                 4          9 3     8    9 1   4  39   3  1 3      5   1          
     3                     6                      2                 6          7 0     8    6 4   3  77   9  7 7      9   7          
 
     X                     X                      X                 X          X X     X    X X   X  XX   X  X X      X   X          
     X                     X                      X                 X            X     X          X  XX   X                          
     X                     X                      X                 X            X     X          X  X    X                          
     X                     X                      X                 X            X     X          X  X    X                          
     X                     X                      X                 X                  X                                             
     X                     X                      X                                    X                                             
     X                     X                      X                                    X                                             
     X                     X                      X                                    X                                             
     X                     X                      X                                    X                                             
     X                                            X                                    X                                             
     X                                            X                                    X                                             
     X                                                                                 X                                             
                                                                                       X                                             
                                                                                       X                                             
                                                                                       X                                             
                                                                                       X                                             
                                                                                       X                                             
                                                                                       X                                             
                                                                                       X                                             
                                                                                       X                                             
 
 ***** Axes restored to original set *****
 -------------------------------------------------------------------
 Center     Atomic                   Forces (Hartrees/Bohr)
 Number     Number              X              Y              Z
 -------------------------------------------------------------------
      1        6           0.063650294   -0.031975442   -0.029089960
      2        6           0.254096242   -0.055815161   -0.041647764
      3        8          -0.535379186   -0.010738488   -0.053793326
      4        6          -0.051863504    0.427057350    0.048081529
      5        6           0.272538884    0.048506867   -0.000429959
      6        1          -0.007205552   -0.015764396    0.014736740
      7        1           0.053372399   -0.085000477    0.006771354
      8        1          -0.124603839   -0.216400525    0.044585072
      9        1           0.075394261   -0.059869729    0.010786316
 -------------------------------------------------------------------
 Cartesian Forces:  Max     0.535379186 RMS     0.162543462
 Z-matrix is all fixed cartesians, so copy forces.
 Force constants in Cartesian coordinates: 
                1             2             3             4             5 
      1  0.110026D+01
      2 -0.203275D+00  0.702160D+00
      3  0.193485D+00 -0.215102D-01  0.135703D+00
      4 -0.396165D+00 -0.538941D-01 -0.539359D-01  0.847741D+00
      5 -0.161900D+00 -0.106929D+00 -0.200489D-01  0.116773D+00  0.168562D+01
      6 -0.571314D-01 -0.108491D-01 -0.100158D+00 -0.148958D+00 -0.221788D-01
      7 -0.177470D+00  0.324512D-01 -0.149225D-01 -0.223082D+00  0.459678D+00
      8  0.118609D+00 -0.335622D-02  0.423891D-03  0.480127D+00 -0.962218D+00
      9 -0.412005D-02 -0.679178D-02  0.517313D-01  0.708696D-01 -0.144212D+00
     10  0.292847D-02  0.121485D+00  0.222310D-01  0.375389D-02  0.137436D-01
     11  0.527996D-01 -0.374654D-01 -0.740818D-02 -0.385442D-01 -0.158052D+00
     12  0.968973D-02  0.612549D-03  0.311825D-01 -0.687050D-02 -0.244033D-01
     13 -0.659425D-01 -0.370969D-01 -0.659108D-02 -0.342761D-02 -0.524671D-01
     14  0.376678D-01 -0.465386D+00 -0.179542D-01 -0.111620D+00 -0.428409D-01
     15  0.925075D-02 -0.221543D-01 -0.831352D-01 -0.186413D-01 -0.137207D-01
     16  0.368817D-03 -0.589467D-02  0.148720D-02  0.247245D-02  0.115860D-02
     17 -0.203105D-01 -0.266614D-01  0.114597D-03  0.163368D-02 -0.158453D-02
     18 -0.145962D-02 -0.419927D-02  0.650959D-02  0.288684D-03 -0.160947D-02
     19 -0.121725D-02 -0.623200D-03 -0.646579D-04 -0.339492D-02 -0.600817D-02
     20 -0.121413D-02  0.931286D-03 -0.488837D-04 -0.345451D-02  0.384996D-02
     21  0.480777D-04  0.417771D-03  0.112671D-02 -0.252754D-02 -0.195878D-02
     22 -0.256567D-01 -0.277858D-01  0.204645D-02 -0.201474D+00 -0.380202D+00
     23 -0.919771D-02 -0.587069D-03  0.180623D-02 -0.378775D+00 -0.425077D+00
     24 -0.424927D-02 -0.141336D-02  0.918903D-02  0.164930D+00  0.226330D+00
     25 -0.437101D+00  0.174634D+00 -0.143735D+00 -0.264229D-01  0.922485D-02
     26  0.186822D+00 -0.627061D-01  0.646257D-01 -0.122459D-01  0.722930D-02
     27 -0.145513D+00  0.658878D-01 -0.521490D-01 -0.515451D-02  0.180128D-02
                6             7             8             9            10 
      6  0.703129D-01
      7  0.704189D-01  0.889158D+00
      8 -0.138470D+00  0.128409D+00  0.203503D+01
      9  0.578418D-02  0.125962D+00  0.435089D+00 -0.110272D+00
     10 -0.963834D-02 -0.335540D+00 -0.613222D+00 -0.166203D+00  0.121139D+01
     11 -0.335049D-01 -0.575188D+00 -0.917163D+00 -0.269684D+00  0.319149D+00
     12  0.644091D-02 -0.167168D+00 -0.280486D+00 -0.227071D-01  0.820799D-01
     13 -0.649858D-02 -0.192471D+00 -0.119639D+00 -0.281469D-01 -0.777231D+00
     14 -0.162145D-01 -0.339831D-01 -0.204160D-02 -0.873292D-02  0.139703D+00
     15  0.164660D-01 -0.175784D-01 -0.177020D-01  0.575465D-01  0.666349D-01
     16  0.154550D-02 -0.393566D-02  0.119392D-02  0.183690D-03 -0.331056D-01
     17 -0.159399D-04  0.109198D-02  0.247611D-02  0.898746D-03  0.190743D-02
     18  0.339996D-02  0.139616D-02  0.191241D-02  0.383218D-02  0.304867D-02
     19 -0.147743D-02  0.172723D-01  0.405483D-02  0.181214D-02 -0.728054D-01
     20  0.469498D-03  0.501736D-02 -0.558200D-01 -0.943540D-02  0.109930D-01
     21  0.674910D-02  0.253673D-02 -0.595931D-02 -0.214321D-02  0.182361D-03
     22  0.158174D+00  0.301031D-01  0.295865D-02  0.155870D-02 -0.331636D-02
     23  0.222450D+00 -0.152758D-01 -0.976511D-01  0.277512D-02  0.618559D-02
     24 -0.123750D-01  0.474880D-03  0.394045D-02  0.107354D-01  0.407701D-02
     25 -0.643410D-02 -0.403437D-02 -0.249171D-02 -0.191566D-02  0.392428D-02
     26 -0.168659D-02 -0.220098D-02  0.738249D-03  0.929157D-04  0.559251D-04
     27  0.337967D-02 -0.112034D-02  0.125133D-02  0.549280D-02 -0.241202D-02
               11            12            13            14            15 
     11  0.121785D+01
     12  0.319834D+00  0.720704D-01
     13  0.250146D+00  0.776224D-01  0.126866D+01
     14 -0.508298D-01 -0.202707D-01  0.609193D-01  0.750056D+00
     15 -0.874685D-02 -0.398002D-01 -0.647379D-01  0.340291D-01  0.897858D-01
     16 -0.164610D-01  0.373623D-02 -0.206573D+00 -0.130848D+00  0.294542D-01
     17  0.406002D-02  0.836771D-03 -0.134485D+00 -0.151358D+00  0.252207D-01
     18  0.117617D-02  0.816457D-02  0.318859D-01  0.293032D-01 -0.599207D-01
     19  0.112707D-02  0.673642D-03 -0.153725D-01  0.196209D-01  0.118867D-02
     20 -0.542404D-01  0.182644D-02  0.550510D-02 -0.581534D-02 -0.601708D-03
     21  0.665234D-03 -0.664704D-01  0.120399D-02 -0.149945D-03  0.608985D-02
     22  0.699587D-02  0.167338D-02 -0.164235D-02  0.895957D-03 -0.647865D-03
     23 -0.270839D-02  0.263467D-02  0.110891D-02  0.139543D-02  0.902197D-03
     24 -0.100546D-02  0.874856D-02 -0.222737D-02  0.201400D-02  0.128458D-02
     25 -0.248511D-04 -0.143730D-02 -0.599930D-02  0.176446D-01 -0.492314D-02
     26 -0.144861D-02 -0.584646D-03  0.260088D-01 -0.331801D-01  0.277358D-02
     27 -0.132635D-02  0.237113D-02 -0.251037D-02 -0.202400D-02  0.116832D-01
               16            17            18            19            20 
     16  0.239466D+00
     17  0.150481D+00  0.173652D+00
     18 -0.361321D-01 -0.272166D-01  0.392891D-01
     19 -0.382277D-03 -0.221282D-04  0.174732D-03  0.752951D-01
     20  0.994210D-03  0.146644D-02 -0.761571D-04 -0.183853D-01  0.111297D+00
     21  0.795033D-04 -0.710422D-04 -0.760369D-05 -0.204019D-02  0.789423D-02
     22 -0.519645D-03 -0.401774D-03 -0.201602D-04  0.118783D-02 -0.325260D-03
     23 -0.540036D-03 -0.411001D-03 -0.100986D-03  0.138159D-04 -0.130662D-02
     24 -0.663394D-04 -0.792783D-04 -0.213356D-03 -0.189624D-03 -0.174265D-03
     25  0.220871D-02  0.104797D-03  0.817731D-03 -0.582786D-03  0.869497D-03
     26 -0.845805D-04 -0.163953D-02  0.810567D-03  0.222127D-03 -0.362192D-03
     27 -0.287912D-03  0.312041D-03 -0.105372D-02 -0.773055D-04  0.146240D-03
               21            22            23            24            25 
     21  0.549513D-01
     22  0.355293D-03  0.201621D+00
     23 -0.756658D-03  0.397449D+00  0.525756D+00
     24 -0.293132D-03 -0.162745D+00 -0.229574D+00 -0.169877D-01
     25  0.161788D-03 -0.302684D-03 -0.968072D-03 -0.434228D-05  0.468310D+00
     26 -0.814987D-04  0.416141D-03  0.589295D-03 -0.381939D-04 -0.198993D+00
     27 -0.255996D-05 -0.394543D-03 -0.136541D-03 -0.881878D-04  0.157470D+00
               26            27 
     26  0.907797D-01
     27 -0.659119D-01  0.303667D-01
 Leave Link  716 at Sun Feb 21 20:30:54 2016, MaxMem=    33554432 cpu:         0.0
 (Enter /opt/g09/g09/l103.exe)

 GradGradGradGradGradGradGradGradGradGradGradGradGradGradGradGradGradGrad
 Berny optimization.
 Search for a local minimum.
 Step number   1 out of a maximum of    2
 All quantities printed in internal units (Hartrees-Bohrs-Radians)
 Second derivative matrix not updated -- analytic derivatives used.
 ITU=  0
     Eigenvalues ---   -0.16582  -0.15007  -0.08388  -0.03074   0.01158
     Eigenvalues ---    0.05782   0.06443   0.08396   0.10538   0.12204
     Eigenvalues ---    0.19535   0.20416   0.35771   0.48255   0.61432
     Eigenvalues ---    1.13410   1.50837   1.68373   1.99863   2.41008
     Eigenvalues ---    3.43084
 Eigenvalue     1 is  -1.66D-01 should be greater than     0.000000 Eigenvector:
                          Z3        Z8        Z4        Z7        Z6
   1                    0.65049  -0.50044  -0.39035  -0.19264   0.17752
                          Z9        Z2        Y3        Y4        Y8
   1                    0.17595  -0.13079  -0.11734   0.11579  -0.08126
 Eigenvalue     2 is  -1.50D-01 should be greater than     0.000000 Eigenvector:
                          Z8        Z2        X8        Z3        Z9
   1                    0.64301  -0.53570   0.32025   0.20854   0.17998
                          Y8        Z6        Z1        Z4        X9
   1                    0.17206   0.17086  -0.13618  -0.10831  -0.10515
 Eigenvalue     3 is  -8.39D-02 should be greater than     0.000000 Eigenvector:
                          X8        Y8        X2        Y2        Y3
   1                    0.72463  -0.54689  -0.19339   0.15614   0.15117
                          X3        Z2        Z8        X1        Z3
   1                   -0.14198   0.11029  -0.10351  -0.09139  -0.07888
 Eigenvalue     4 is  -3.07D-02 should be greater than     0.000000 Eigenvector:
                          Z9        Z4        Z6        Z5        X9
   1                    0.76794   0.30261  -0.28400  -0.27165  -0.22443
                          Z1        Z7        Z8        Y9        Y4
   1                   -0.17593   0.16954  -0.13280   0.13008  -0.07999
 Quadratic step=2.974D+00 exceeds max=3.000D-01 adjusted using Lamda=-1.305D+00.
 Angle between NR and scaled steps=  64.73 degrees.
 Angle between quadratic step and forces=  17.03 degrees.
 Linear search not attempted -- first point.
 TrRot= -0.008663  0.012152 -0.002329 -1.363286 -0.000688  1.363736
 Variable       Old X    -DE/DX   Delta X   Delta X   Delta X     New X
                                 (Linear)    (Quad)   (Total)
    X1        1.80054   0.06365   0.00000   0.04447   0.03645   1.83699
    Y1       -1.35102  -0.03198   0.00000  -0.01736  -0.00450  -1.35552
    Z1       -0.16758  -0.02909   0.00000  -0.01588  -0.01703  -0.18461
    X2       -0.78488   0.25410   0.00000   0.09251   0.08489  -0.70000
    Y2       -2.10621  -0.05582   0.00000  -0.00720   0.00424  -2.10197
    Z2       -0.61469  -0.04165   0.00000   0.00867   0.00766  -0.60703
    X3       -1.74547  -0.53538   0.00000  -0.18829  -0.19692  -1.94240
    Y3        0.01876  -0.01074   0.00000   0.00792   0.01899   0.03775
    Z3       -0.30635  -0.05379   0.00000  -0.00971  -0.01233  -0.31868
    X4       -0.61169  -0.05186   0.00000  -0.02463  -0.03424  -0.64593
    Y4        1.92295   0.42706   0.00000   0.11461   0.12662   2.04956
    Z4        0.22430   0.04808   0.00000  -0.00771  -0.01151   0.21279
    X5        1.79066   0.27254   0.00000   0.08220   0.07292   1.86359
    Y5        1.34839   0.04851   0.00000   0.00914   0.02215   1.37053
    Z5        0.01799  -0.00043   0.00000   0.00783   0.00486   0.02284
    X6        3.38798  -0.00721   0.00000   0.01397   0.00415   3.39214
    Y6        2.66706  -0.01576   0.00000  -0.01175   0.00172   2.66879
    Z6       -0.31691   0.01474   0.00000   0.01279   0.00916  -0.30775
    X7       -1.91975   0.05337   0.00000   0.04697   0.03646  -1.88329
    Y7        4.08266  -0.08500   0.00000  -0.06074  -0.04927   4.03339
    Z7        0.22809   0.00677   0.00000   0.01088   0.00558   0.23367
    X8       -1.71987  -0.12460   0.00000  -0.04072  -0.04781  -1.76768
    Y8       -3.37744  -0.21640   0.00000  -0.09454  -0.08320  -3.46065
    Z8       -0.05272   0.04459   0.00000   0.00896   0.00872  -0.04401
    X9        3.45693   0.07539   0.00000   0.05191   0.04411   3.50104
    Y9       -1.99575  -0.05987   0.00000  -0.05075  -0.03674  -2.03249
    Z9        0.39935   0.01079   0.00000   0.00535   0.00489   0.40424
         Item               Value     Threshold  Converged?
 Maximum Force            0.535379     0.000450     NO 
 RMS     Force            0.162543     0.000300     NO 
 Maximum Displacement     0.196924     0.001800     NO 
 RMS     Displacement     0.057050     0.001200     NO 
 Predicted change in Energy=-1.802528D-01
 GradGradGradGradGradGradGradGradGradGradGradGradGradGradGradGradGradGrad

 Leave Link  103 at Sun Feb 21 20:30:54 2016, MaxMem=    33554432 cpu:         0.0
 (Enter /opt/g09/g09/l9999.exe)
 1\1\GINC-LINUX-CBNE\Freq\RAM1\ZDO\C4H4O1\DUSTIN\21-Feb-2016\0\\#P AM1(
 Input,print) freq\\AM1-Reparam Input\\0,1\C,0.952803,-0.714929,-0.0886
 8\C,-0.415341,-1.114558,-0.325281\O,-0.923664,0.00993,-0.162113\C,-0.3
 23694,1.017579,0.118695\C,0.947579,0.713535,0.009519\H,1.792844,1.4113
 49,-0.167701\H,-1.015887,2.16045,0.120702\H,-0.910115,-1.787265,-0.027
 9\H,1.829328,-1.056105,0.211325\\Version=ES64L-G09RevD.01\State=1-A\HF
 =-0.6556589\RMSD=4.942e-09\RMSF=1.625e-01\ZeroPoint=0.0716642\Thermal=
 0.0751756\Dipole=-0.465427,0.9099702,0.2511248\DipoleDeriv=-0.3118372,
 0.2644552,-0.0285213,0.3013294,-0.1153883,0.0518937,0.0083598,0.075221
 5,-0.3363153,-0.5895209,-0.2378161,0.0160333,-0.4033929,-1.0785035,-0.
 1775249,-0.0716301,-0.051375,-0.6125063,0.0145053,0.1618181,0.0236601,
 0.0564699,1.1409509,0.3477438,-0.0859992,0.1060894,0.4426113,-0.510976
 8,0.0412764,-0.0607925,0.3803817,-1.3147048,-0.2082325,0.1470877,-0.10
 04251,-0.5252555,-0.3090057,-0.2136333,0.0331149,-0.3269112,-0.4358783
 ,0.006496,-0.0160807,0.0097921,-0.3780293,0.4323661,0.1742167,-0.00984
 8,0.1420327,0.371006,-0.0155539,-0.0124291,-0.0195828,0.3187815,0.4566
 839,-0.2141059,-0.0262432,-0.1755384,0.6918064,0.0203757,-0.0231344,0.
 0138828,0.4054346,0.3643451,0.188193,0.0095721,0.1184512,0.4645377,-0.
 0184431,0.0237717,-0.0034174,0.3659835,0.4534468,-0.1644081,0.0430247,
 -0.0928279,0.2761711,-0.006756,0.0300548,-0.0301841,0.3192928\Polar=33
 .565687,-0.3626872,48.5100839,1.9190345,5.9469679,10.2154565\HyperPola
 r=41.1988441,23.1074189,-37.4750971,22.1111962,1.6991176,-11.3661645,0
 .6657409,-1.0154092,-2.5631324,-0.3261351\PG=C01 [X(C4H4O1)]\NImag=4\\
 1.10025502,-0.20327500,0.70216022,0.19348465,-0.02151025,0.13570290,-0
 .39616523,-0.05389408,-0.05393592,0.84774051,-0.16190041,-0.10692893,-
 0.02004890,0.11677324,1.68562221,-0.05713145,-0.01084909,-0.10015796,-
 0.14895829,-0.02217880,0.07031289,-0.17747005,0.03245122,-0.01492246,-
 0.22308223,0.45967769,0.07041893,0.88915757,0.11860880,-0.00335622,0.0
 0042389,0.48012728,-0.96221771,-0.13846988,0.12840947,2.03503497,-0.00
 412005,-0.00679178,0.05173131,0.07086964,-0.14421199,0.00578418,0.1259
 6215,0.43508915,-0.11027199,0.00292847,0.12148462,0.02223104,0.0037538
 9,0.01374362,-0.00963834,-0.33553952,-0.61322195,-0.16620347,1.2113907
 0,0.05279964,-0.03746541,-0.00740818,-0.03854421,-0.15805250,-0.033504
 86,-0.57518797,-0.91716315,-0.26968399,0.31914924,1.21784876,0.0096897
 3,0.00061255,0.03118246,-0.00687050,-0.02440325,0.00644091,-0.16716779
 ,-0.28048585,-0.02270714,0.08207988,0.31983413,0.07207042,-0.06594246,
 -0.03709694,-0.00659108,-0.00342761,-0.05246710,-0.00649858,-0.1924710
 8,-0.11963910,-0.02814689,-0.77723062,0.25014587,0.07762239,1.26865931
 ,0.03766782,-0.46538632,-0.01795420,-0.11162047,-0.04284089,-0.0162145
 4,-0.03398307,-0.00204160,-0.00873292,0.13970251,-0.05082985,-0.020270
 66,0.06091928,0.75005636,0.00925075,-0.02215427,-0.08313516,-0.0186413
 2,-0.01372072,0.01646600,-0.01757838,-0.01770196,0.05754652,0.06663490
 ,-0.00874685,-0.03980024,-0.06473785,0.03402914,0.08978577,0.00036882,
 -0.00589467,0.00148720,0.00247245,0.00115860,0.00154550,-0.00393566,0.
 00119392,0.00018369,-0.03310560,-0.01646097,0.00373623,-0.20657319,-0.
 13084779,0.02945420,0.23946639,-0.02031047,-0.02666140,0.00011460,0.00
 163368,-0.00158453,-0.00001594,0.00109198,0.00247611,0.00089875,0.0019
 0743,0.00406002,0.00083677,-0.13448490,-0.15135798,0.02522067,0.150481
 40,0.17365189,-0.00145962,-0.00419927,0.00650959,0.00028868,-0.0016094
 7,0.00339996,0.00139616,0.00191241,0.00383218,0.00304867,0.00117617,0.
 00816457,0.03188587,0.02930325,-0.05992067,-0.03613211,-0.02721659,0.0
 3928906,-0.00121725,-0.00062320,-0.00006466,-0.00339492,-0.00600817,-0
 .00147743,0.01727227,0.00405483,0.00181214,-0.07280541,0.00112707,0.00
 067364,-0.01537253,0.01962093,0.00118867,-0.00038228,-0.00002213,0.000
 17473,0.07529509,-0.00121413,0.00093129,-0.00004888,-0.00345451,0.0038
 4996,0.00046950,0.00501736,-0.05581998,-0.00943540,0.01099303,-0.05424
 039,0.00182644,0.00550510,-0.00581534,-0.00060171,0.00099421,0.0014664
 4,-0.00007616,-0.01838525,0.11129676,0.00004808,0.00041777,0.00112671,
 -0.00252754,-0.00195878,0.00674910,0.00253673,-0.00595931,-0.00214321,
 0.00018236,0.00066523,-0.06647040,0.00120399,-0.00014994,0.00608985,0.
 00007950,-0.00007104,-0.00000760,-0.00204019,0.00789423,0.05495133,-0.
 02565670,-0.02778584,0.00204645,-0.20147372,-0.38020236,0.15817364,0.0
 3010309,0.00295865,0.00155870,-0.00331636,0.00699587,0.00167338,-0.001
 64235,0.00089596,-0.00064786,-0.00051965,-0.00040177,-0.00002016,0.001
 18783,-0.00032526,0.00035529,0.20162052,-0.00919771,-0.00058707,0.0018
 0623,-0.37877523,-0.42507655,0.22245033,-0.01527578,-0.09765110,0.0027
 7512,0.00618559,-0.00270839,0.00263467,0.00110891,0.00139543,0.0009022
 0,-0.00054004,-0.00041100,-0.00010099,0.00001382,-0.00130662,-0.000756
 66,0.39744854,0.52575596,-0.00424927,-0.00141336,0.00918903,0.16492992
 ,0.22633045,-0.01237501,0.00047488,0.00394045,0.01073542,0.00407701,-0
 .00100546,0.00874856,-0.00222737,0.00201400,0.00128458,-0.00006634,-0.
 00007928,-0.00021336,-0.00018962,-0.00017427,-0.00029313,-0.16274485,-
 0.22957437,-0.01698771,-0.43710090,0.17463419,-0.14373502,-0.02642289,
 0.00922485,-0.00643410,-0.00403437,-0.00249171,-0.00191566,0.00392428,
 -0.00002485,-0.00143730,-0.00599930,0.01764465,-0.00492314,0.00220871,
 0.00010480,0.00081773,-0.00058279,0.00086950,0.00016179,-0.00030268,-0
 .00096807,-0.00000434,0.46830995,0.18682188,-0.06270610,0.06462568,-0.
 01224588,0.00722930,-0.00168659,-0.00220098,0.00073825,0.00009292,0.00
 005593,-0.00144861,-0.00058465,0.02600877,-0.03318014,0.00277358,-0.00
 008458,-0.00163953,0.00081057,0.00022213,-0.00036219,-0.00008150,0.000
 41614,0.00058930,-0.00003819,-0.19899341,0.09077970,-0.14551312,0.0658
 8780,-0.05214903,-0.00515451,0.00180128,0.00337967,-0.00112034,0.00125
 133,0.00549280,-0.00241202,-0.00132635,0.00237113,-0.00251037,-0.00202
 400,0.01168315,-0.00028791,0.00031204,-0.00105372,-0.00007731,0.000146
 24,-0.00000256,-0.00039454,-0.00013654,-0.00008819,0.15747016,-0.06591
 189,0.03036671\\-0.06365029,0.03197544,0.02908996,-0.25409624,0.055815
 16,0.04164776,0.53537919,0.01073849,0.05379333,0.05186350,-0.42705735,
 -0.04808153,-0.27253888,-0.04850687,0.00042996,0.00720555,0.01576440,-
 0.01473674,-0.05337240,0.08500048,-0.00677135,0.12460384,0.21640052,-0
 .04458507,-0.07539426,0.05986973,-0.01078632\\\@


 THERE IS AN OLD, OLD RECIPE IN MAINE FOR STEWING COOT. PLACE THE
 BIRD IN A KETTLE OF WATER WITH A RED BUILDING BRICK FREE OF MORTAR AND
 BLEMISHES. PARBOIL THE COOT AND BRICK TOGETHER FOR THREE HOURS.
 POUR OFF THE WATER, REFILL THE KETTLE, AND AGAIN PARBOIL FOR THREE HOURS.
 ONCE AGAIN POUR OFF THE WATER, FOR THE LAST TIME ADD FRESH WATER,
 AND LET THE COOT AND BRICK SIMMER TOGETHER OVERNIGHT. IN THE MORNING,
 THROW AWAY THE COOT AND EAT THE BRICK.
 Job cpu time:       0 days  0 hours  0 minutes  0.4 seconds.
 File lengths (MBytes):  RWF=      5 Int=      0 D2E=      0 Chk=      2 Scr=      1
 Normal termination of Gaussian 09 at Sun Feb 21 20:30:54 2016.
