 Entering Gaussian System, Link 0=g09
 Input=FuranAM1.com
 Output=FuranAM1.log
 Initial command:
 /opt/g09/g09/l1.exe "/opt/g09/scratch/Gau-10226.inp" -scrdir="/opt/g09/scratch/"
 Entering Link 1 = /opt/g09/g09/l1.exe PID=     10227.
  
 Copyright (c) 1988,1990,1992,1993,1995,1998,2003,2009,2013,
            Gaussian, Inc.  All Rights Reserved.
  
 This is part of the Gaussian(R) 09 program.  It is based on
 the Gaussian(R) 03 system (copyright 2003, Gaussian, Inc.),
 the Gaussian(R) 98 system (copyright 1998, Gaussian, Inc.),
 the Gaussian(R) 94 system (copyright 1995, Gaussian, Inc.),
 the Gaussian 92(TM) system (copyright 1992, Gaussian, Inc.),
 the Gaussian 90(TM) system (copyright 1990, Gaussian, Inc.),
 the Gaussian 88(TM) system (copyright 1988, Gaussian, Inc.),
 the Gaussian 86(TM) system (copyright 1986, Carnegie Mellon
 University), and the Gaussian 82(TM) system (copyright 1983,
 Carnegie Mellon University). Gaussian is a federally registered
 trademark of Gaussian, Inc.
  
 This software contains proprietary and confidential information,
 including trade secrets, belonging to Gaussian, Inc.
  
 This software is provided under written license and may be
 used, copied, transmitted, or stored only in accord with that
 written license.
  
 The following legend is applicable only to US Government
 contracts under FAR:
  
                    RESTRICTED RIGHTS LEGEND
  
 Use, reproduction and disclosure by the US Government is
 subject to restrictions as set forth in subparagraphs (a)
 and (c) of the Commercial Computer Software - Restricted
 Rights clause in FAR 52.227-19.
  
 Gaussian, Inc.
 340 Quinnipiac St., Bldg. 40, Wallingford CT 06492
  
  
 ---------------------------------------------------------------
 Warning -- This program may not be used in any manner that
 competes with the business of Gaussian, Inc. or will provide
 assistance to any competitor of Gaussian, Inc.  The licensee
 of this program is prohibited from giving any competitor of
 Gaussian, Inc. access to this program.  By using this program,
 the user acknowledges that Gaussian, Inc. is engaged in the
 business of creating and licensing software in the field of
 computational chemistry and represents and warrants to the
 licensee that it is not a competitor of Gaussian, Inc. and that
 it will not use this program in any manner prohibited above.
 ---------------------------------------------------------------
  

 Cite this work as:
 Gaussian 09, Revision D.01,
 M. J. Frisch, G. W. Trucks, H. B. Schlegel, G. E. Scuseria, 
 M. A. Robb, J. R. Cheeseman, G. Scalmani, V. Barone, B. Mennucci, 
 G. A. Petersson, H. Nakatsuji, M. Caricato, X. Li, H. P. Hratchian, 
 A. F. Izmaylov, J. Bloino, G. Zheng, J. L. Sonnenberg, M. Hada, 
 M. Ehara, K. Toyota, R. Fukuda, J. Hasegawa, M. Ishida, T. Nakajima, 
 Y. Honda, O. Kitao, H. Nakai, T. Vreven, J. A. Montgomery, Jr., 
 J. E. Peralta, F. Ogliaro, M. Bearpark, J. J. Heyd, E. Brothers, 
 K. N. Kudin, V. N. Staroverov, T. Keith, R. Kobayashi, J. Normand, 
 K. Raghavachari, A. Rendell, J. C. Burant, S. S. Iyengar, J. Tomasi, 
 M. Cossi, N. Rega, J. M. Millam, M. Klene, J. E. Knox, J. B. Cross, 
 V. Bakken, C. Adamo, J. Jaramillo, R. Gomperts, R. E. Stratmann, 
 O. Yazyev, A. J. Austin, R. Cammi, C. Pomelli, J. W. Ochterski, 
 R. L. Martin, K. Morokuma, V. G. Zakrzewski, G. A. Voth, 
 P. Salvador, J. J. Dannenberg, S. Dapprich, A. D. Daniels, 
 O. Farkas, J. B. Foresman, J. V. Ortiz, J. Cioslowski, 
 and D. J. Fox, Gaussian, Inc., Wallingford CT, 2013.
 
 ******************************************
 Gaussian 09:  ES64L-G09RevD.01 24-Apr-2013
                25-Feb-2016 
 ******************************************
 -----------------------------------------------------------
 #P AM1(Input,print) CIS(Singlets,NStates=15) pop(full) freq
 -----------------------------------------------------------
 1/10=4,30=1,38=1/1,3;
 2/12=2,17=6,18=5,40=1/2;
 3/5=2,16=1,25=1,41=700000,71=2,135=100,136=1,140=1/1,2,8,3;
 4/35=1/1;
 5/5=2,35=1,38=5,98=1/2;
 8/6=1,10=90,108=15/1;
 9/15=3,41=15,42=1,48=1,49=10/14;
 10/5=4,20=4/2;
 11/6=1,8=1,12=-1,16=1,42=3/1,2,10;
 10/6=2,21=1/2,14;
 6/7=3,18=1/1;
 7/8=1,10=1,12=6,13=5,25=1,44=2/1,2,3,16;
 1/10=4,30=1/3;
 99//99;
 Leave Link    1 at Thu Feb 25 12:57:21 2016, MaxMem=           0 cpu:         0.0
 (Enter /opt/g09/g09/l101.exe)
 -----------------
 AM1-Reparam Input
 -----------------
 Symbolic Z-matrix:
 Charge =  0 Multiplicity = 1
 6                     0.95548  -0.71596   0. 
 6                    -0.34563  -1.09282   0. 
 8                    -1.15731   0.        0. 
 6                    -0.34563   1.09282   0. 
 6                     0.95548   0.71596   0. 
 1                     1.81044   1.36938   0. 
 1                    -0.84031   2.04688   0. 
 1                    -0.84031  -2.04688   0. 
 1                     1.81044  -1.36938   0. 
 
 NAtoms=      9 NQM=        9 NQMF=       0 NMMI=      0 NMMIF=      0
                NMic=       0 NMicF=      0.
                    Isotopes and Nuclear Properties:
 (Nuclear quadrupole moments (NQMom) in fm**2, nuclear magnetic moments (NMagM)
  in nuclear magnetons)

  Atom         1           2           3           4           5           6           7           8           9
 IAtWgt=          12          12          16          12          12           1           1           1           1
 AtmWgt=  12.0000000  12.0000000  15.9949146  12.0000000  12.0000000   1.0078250   1.0078250   1.0078250   1.0078250
 NucSpn=           0           0           0           0           0           1           1           1           1
 AtZEff=   0.0000000   0.0000000   0.0000000   0.0000000   0.0000000   0.0000000   0.0000000   0.0000000   0.0000000
 NQMom=    0.0000000   0.0000000   0.0000000   0.0000000   0.0000000   0.0000000   0.0000000   0.0000000   0.0000000
 NMagM=    0.0000000   0.0000000   0.0000000   0.0000000   0.0000000   2.7928460   2.7928460   2.7928460   2.7928460
 AtZNuc=   6.0000000   6.0000000   8.0000000   6.0000000   6.0000000   1.0000000   1.0000000   1.0000000   1.0000000
 Leave Link  101 at Thu Feb 25 12:57:21 2016, MaxMem=    33554432 cpu:         0.0
 (Enter /opt/g09/g09/l103.exe)

 GradGradGradGradGradGradGradGradGradGradGradGradGradGradGradGradGradGrad
 Berny optimization.
 Initialization pass.
 Trust Radius=3.00D-01 FncErr=1.00D-07 GrdErr=1.00D-07
 Number of steps in this run=      2 maximum allowed number of steps=      2.
 GradGradGradGradGradGradGradGradGradGradGradGradGradGradGradGradGradGrad

 Leave Link  103 at Thu Feb 25 12:57:21 2016, MaxMem=    33554432 cpu:         0.0
 (Enter /opt/g09/g09/l202.exe)
                          Input orientation:                          
 ---------------------------------------------------------------------
 Center     Atomic      Atomic             Coordinates (Angstroms)
 Number     Number       Type             X           Y           Z
 ---------------------------------------------------------------------
      1          6           0        0.955475   -0.715963    0.000000
      2          6           0       -0.345627   -1.092818    0.000000
      3          8           0       -1.157305    0.000000    0.000000
      4          6           0       -0.345627    1.092818    0.000000
      5          6           0        0.955475    0.715963    0.000000
      6          1           0        1.810438    1.369382    0.000000
      7          1           0       -0.840307    2.046884    0.000000
      8          1           0       -0.840307   -2.046884    0.000000
      9          1           0        1.810438   -1.369382    0.000000
 ---------------------------------------------------------------------
                    Distance matrix (angstroms):
                    1          2          3          4          5
     1  C    0.000000
     2  C    1.354580   0.000000
     3  O    2.230794   1.361276   0.000000
     4  C    2.228128   2.185636   1.361276   0.000000
     5  C    1.431926   2.228128   2.230794   1.354580   0.000000
     6  H    2.253802   3.272773   3.268441   2.173730   1.076066
     7  H    3.295172   3.178433   2.071285   1.074686   2.235214
     8  H    2.235214   1.074686   2.071285   3.178433   3.295172
     9  H    1.076066   2.173730   3.268441   3.272773   2.253802
                    6          7          8          9
     6  H    0.000000
     7  H    2.735957   0.000000
     8  H    4.324040   4.093768   0.000000
     9  H    2.738764   4.324040   2.735957   0.000000
 Stoichiometry    C4H4O
 Framework group  C2V[C2(O),SGV(C4H4)]
 Deg. of freedom     8
 Full point group                 C2V     NOp   4
 Largest Abelian subgroup         C2V     NOp   4
 Largest concise Abelian subgroup C2      NOp   2
                         Standard orientation:                         
 ---------------------------------------------------------------------
 Center     Atomic      Atomic             Coordinates (Angstroms)
 Number     Number       Type             X           Y           Z
 ---------------------------------------------------------------------
      1          6           0        0.000000    0.715963   -0.955475
      2          6           0        0.000000    1.092818    0.345627
      3          8           0        0.000000    0.000000    1.157305
      4          6           0        0.000000   -1.092818    0.345627
      5          6           0        0.000000   -0.715963   -0.955475
      6          1           0        0.000000   -1.369382   -1.810438
      7          1           0        0.000000   -2.046884    0.840307
      8          1           0        0.000000    2.046884    0.840307
      9          1           0        0.000000    1.369382   -1.810438
 ---------------------------------------------------------------------
 Rotational constants (GHZ):      9.5015164      9.3284592      4.7070963
 Leave Link  202 at Thu Feb 25 12:57:21 2016, MaxMem=    33554432 cpu:         0.0
 (Enter /opt/g09/g09/l301.exe)

 Semi-emprical parameters in input format:
 Method=8 CoreType=1 PeptideFC=0.0114505045 RIJScale=0.5291772086
 ****
 H       
 PQN=1 NValence=1 F0ss=0.4721553327 ZetaOverlap=1.1880780000 U=-0.4188110042
 Beta=-0.2268825074 CoreKO=1.0589197790 KON=0,0,0,1.0589197790 KON=1,0,1,1.0589197790
 KON=0,1,1,1.0589197790 KON=2,1,1,1.0589197790 EISol=-0.4188110042 EHeat=0.0830298228
 Alpha=1.5252601686
 GCore=0.0085277107,1.4001425905,2.2676713595
 GCore=0.0003534810,1.4001425905,3.4015070392
 GCore=-0.0012733648,0.5600570362,3.9684248791
 ****
 C       
 PQN=2,2 NValence=4 F0ss=0.4494442496 F0sp=0.4215147623 F0pp=0.3768030831 F2pp=0.1898715146
 G1sp=0.2679025821
 ZetaOverlap=1.8086650000,1.6851160000
 U=-1.9120180828,-1.4557965594
 Beta=-0.5775444233,-0.2836784428 DDN=0,1,0.8236736000 DDN=1,1,0.7268015000
 CoreKO=1.1124284736 KON=0,0,0,1.1124284736 KON=1,0,1,0.8219701441 KON=0,1,1,1.1124284736
 KON=2,1,1,0.7783928119 EISol=-4.4398989268 EHeat=0.2723305520 Alpha=1.4014062429
 DipHyp=1.6472524267
 GCore=0.0007885612,1.4001425905,3.0235618126
 GCore=0.0031892455,1.4001425905,3.4959933458
 GCore=-0.0013931594,1.4001425905,3.8739385724
 GCore=-0.0000875022,1.4001425905,5.0077742521
 ****
 O       
 PQN=2,2 NValence=6 F0ss=0.5666745976 F0sp=0.5321302318 F0pp=0.4958708974 F2pp=0.2358081713
 G1sp=0.4343770262
 ZetaOverlap=3.1080320000,2.5240390000
 U=-3.5951865036,-2.8760896690
 Beta=-1.0757546603,-1.0757546603 DDN=0,1,0.4988896000 DDN=1,1,0.4852322000
 CoreKO=0.8822957477 KON=0,0,0,0.8822957477 KON=1,0,1,0.5019543089 KON=0,1,1,0.8822957477
 KON=2,1,1,0.5515584117 EISol=-11.6164441184 EHeat=0.0949133088 Alpha=2.3576807890
 DipHyp=0.9977217969
 GCore=0.0195117322,1.4001425905,1.6023328031
 GCore=0.0056550009,1.9601996266,2.7307884326
 ****
 
 Standard basis: VSTO-6G (5D, 7F)
 Ernie: Thresh=  0.10000D-02 Tol=  0.10000D-05 Strict=F.
  NNHCO=     0 NNPyr=     0 NCTC=     0               EPep=         0.000000000
    EC=        68.814780182  ECS=         1.835657201   EG=         0.356564988
   EHC=         0.000000000  EAt=       -31.051283842  AtH=         1.516354808
 EPDDG=         0.000000000  ECC=        71.007002372 EAtT=        32.567638650
 There are    10 symmetry adapted cartesian basis functions of A1  symmetry.
 There are     2 symmetry adapted cartesian basis functions of A2  symmetry.
 There are     3 symmetry adapted cartesian basis functions of B1  symmetry.
 There are     9 symmetry adapted cartesian basis functions of B2  symmetry.
 There are    10 symmetry adapted basis functions of A1  symmetry.
 There are     2 symmetry adapted basis functions of A2  symmetry.
 There are     3 symmetry adapted basis functions of B1  symmetry.
 There are     9 symmetry adapted basis functions of B2  symmetry.
    24 basis functions,   144 primitive gaussians,    24 cartesian basis functions
    13 alpha electrons       13 beta electrons
       nuclear repulsion energy       103.5746410221 Hartrees.
 IExCor=    0 DFT=F Ex=HF Corr=None ExCW=0 ScaHFX=  1.000000
 ScaDFX=  1.000000  1.000000  1.000000  1.000000 ScalE2=  1.000000  1.000000
 IRadAn=      0 IRanWt=     -1 IRanGd=            0 ICorTp=0 IEmpDi=  4
 Integral buffers will be    131072 words long.
 Regular integral format.
 Two-electron integral symmetry is turned off.
 Leave Link  301 at Thu Feb 25 12:57:21 2016, MaxMem=    33554432 cpu:         0.0
 (Enter /opt/g09/g09/l302.exe)
 Do NDO integrals.
 NPDir=0 NMtPBC=     1 NCelOv=     1 NCel=       1 NClECP=     1 NCelD=      1
         NCelK=      1 NCelE2=     1 NClLst=     1 CellRange=     0.0.
 One-electron integrals computed using PRISM.
 NBasis=    24 RedAO= T EigKep=  1.00D+00  NBF=    10     2     3     9
 NBsUse=    24 1.00D-06 EigRej= -1.00D+00 NBFU=    10     2     3     9
 Leave Link  302 at Thu Feb 25 12:57:21 2016, MaxMem=    33554432 cpu:         0.0
 (Enter /opt/g09/g09/l308.exe)
 Leave Link  308 at Thu Feb 25 12:57:21 2016, MaxMem=    33554432 cpu:         0.0
 (Enter /opt/g09/g09/l303.exe)
 DipDrv:  MaxL=1.
 Leave Link  303 at Thu Feb 25 12:57:21 2016, MaxMem=    33554432 cpu:         0.0
 (Enter /opt/g09/g09/l401.exe)
 Simple Huckel Guess.
 JPrj=0 DoOrth=F DoCkMO=F.
 Initial guess orbital symmetries:
       Occupied  (A1) (A1) (B2) (B2) (A1) (A1) (B1) (B2) (A1) (B2)
                 (A1) (B1) (A2)
       Virtual   (B1) (A2) (B2) (B2) (A1) (A1) (B2) (B2) (A1) (A1)
                 (B2)
 The electronic state of the initial guess is 1-A1.
 Leave Link  401 at Thu Feb 25 12:57:22 2016, MaxMem=    33554432 cpu:         0.0
 (Enter /opt/g09/g09/l502.exe)
 Closed shell SCF:
 Using DIIS extrapolation, IDIIS=  1040.
 Overlap will be assumed to be unity.
 Two-electron integral symmetry not used.
 Keep J ints in memory in canonical form, NReq=888094.
 IVT=       79487 IEndB=       79487 NGot=    33554432 MDV=    33473461
 LenX=    33473461 LenY=    33472444
 Requested convergence on RMS density matrix=1.00D-08 within 128 cycles.
 Requested convergence on MAX density matrix=1.00D-06.
 Requested convergence on             energy=1.00D-06.
 No special actions if energy rises.
 FoFCou: FMM=F IPFlag=           0 FMFlag=           0 FMFlg1=           0
         NFxFlg=           0 DoJE=F BraDBF=F KetDBF=F FulRan=T
         wScrn=  0.000000 ICntrl=     600 IOpCl=  2 I1Cent=           0 NGrid=           0
         NMat0=    1 NMatS0=     54 NMatT0=    0 NMatD0=    1 NMtDS0=    0 NMtDT0=    0
 Symmetry not used in FoFCou.

 Cycle   1  Pass 1  IDiag  1:
 E= 0.326102947876535    
 DIIS: error= 5.47D-02 at cycle   1 NSaved=   1.
 NSaved= 1 IEnMin= 1 EnMin= 0.326102947876535     IErMin= 1 ErrMin= 5.47D-02
 ErrMax= 5.47D-02  0.00D+00 EMaxC= 1.00D-01 BMatC= 1.12D-01 BMatP= 1.12D-01
 IDIUse=3 WtCom= 4.53D-01 WtEn= 5.47D-01
 Coeff-Com:  0.100D+01
 Coeff-En:   0.100D+01
 Coeff:      0.100D+01
 GapD=    2.000 DampG=2.000 DampE=0.500 DampFc=1.0000 IDamp=-1.
 RMSDP=1.95D-02 MaxDP=1.63D-01              OVMax= 0.00D+00

 Cycle   2  Pass 1  IDiag  1:
 E= 0.442804663304202E-01 Delta-E=       -0.281822481546 Rises=F Damp=F
 DIIS: error= 2.06D-02 at cycle   2 NSaved=   2.
 NSaved= 2 IEnMin= 2 EnMin= 0.442804663304202E-01 IErMin= 2 ErrMin= 2.06D-02
 ErrMax= 2.06D-02  0.00D+00 EMaxC= 1.00D-01 BMatC= 9.72D-03 BMatP= 1.12D-01
 IDIUse=3 WtCom= 7.94D-01 WtEn= 2.06D-01
 Coeff-Com: -0.358D+00 0.136D+01
 Coeff-En:   0.000D+00 0.100D+01
 Coeff:     -0.284D+00 0.128D+01
 RMSDP=8.24D-03 MaxDP=7.71D-02 DE=-2.82D-01 OVMax= 0.00D+00

 Cycle   3  Pass 1  IDiag  1:
 E= 0.131657815916100E-01 Delta-E=       -0.031114684739 Rises=F Damp=F
 DIIS: error= 3.59D-03 at cycle   3 NSaved=   3.
 NSaved= 3 IEnMin= 3 EnMin= 0.131657815916100E-01 IErMin= 3 ErrMin= 3.59D-03
 ErrMax= 3.59D-03  0.00D+00 EMaxC= 1.00D-01 BMatC= 3.91D-04 BMatP= 9.72D-03
 IDIUse=3 WtCom= 9.64D-01 WtEn= 3.59D-02
 Coeff-Com:  0.134D+00-0.603D+00 0.147D+01
 Coeff-En:   0.000D+00 0.000D+00 0.100D+01
 Coeff:      0.129D+00-0.581D+00 0.145D+01
 RMSDP=2.57D-03 MaxDP=3.13D-02 DE=-3.11D-02 OVMax= 0.00D+00

 Cycle   4  Pass 1  IDiag  3:
 E= 0.110474592430165E-01 Delta-E=       -0.002118322349 Rises=F Damp=F
 DIIS: error= 1.11D-03 at cycle   4 NSaved=   4.
 NSaved= 4 IEnMin= 4 EnMin= 0.110474592430165E-01 IErMin= 4 ErrMin= 1.11D-03
 ErrMax= 1.11D-03  0.00D+00 EMaxC= 1.00D-01 BMatC= 2.87D-05 BMatP= 3.91D-04
 IDIUse=3 WtCom= 9.89D-01 WtEn= 1.11D-02
 Coeff-Com:  0.152D-01-0.526D-01-0.201D+00 0.124D+01
 Coeff-En:   0.000D+00 0.000D+00 0.000D+00 0.100D+01
 Coeff:      0.150D-01-0.520D-01-0.199D+00 0.124D+01
 Fock symm off for IB=2 I1=    1 I=   11 J=    5 Cut=1.00D-07 Err=1.48D-03
 Fock matrix is not symmetric: symmetry in diagonalization turned off.
 Gap=     0.379 Goal=   None    Shift=    0.000
 RMSDP=8.32D-04 MaxDP=1.08D-02 DE=-2.12D-03 OVMax= 1.13D-02

 Cycle   5  Pass 1  IDiag  3:
 E= 0.108727042026828E-01 Delta-E=       -0.000174755040 Rises=F Damp=F
 DIIS: error= 1.98D-04 at cycle   5 NSaved=   5.
 NSaved= 5 IEnMin= 5 EnMin= 0.108727042026828E-01 IErMin= 5 ErrMin= 1.98D-04
 ErrMax= 1.98D-04  0.00D+00 EMaxC= 1.00D-01 BMatC= 1.65D-06 BMatP= 2.87D-05
 IDIUse=3 WtCom= 9.98D-01 WtEn= 1.98D-03
 Coeff-Com: -0.823D-02 0.327D-01 0.237D-01-0.476D+00 0.143D+01
 Coeff-En:   0.000D+00 0.000D+00 0.000D+00 0.000D+00 0.100D+01
 Coeff:     -0.821D-02 0.327D-01 0.237D-01-0.475D+00 0.143D+01
 Gap=     0.379 Goal=   None    Shift=    0.000
 RMSDP=2.28D-04 MaxDP=1.98D-03 DE=-1.75D-04 OVMax= 2.40D-03

 Cycle   6  Pass 1  IDiag  3:
 E= 0.108608405743809E-01 Delta-E=       -0.000011863628 Rises=F Damp=F
 DIIS: error= 8.82D-05 at cycle   6 NSaved=   6.
 NSaved= 6 IEnMin= 6 EnMin= 0.108608405743809E-01 IErMin= 6 ErrMin= 8.82D-05
 ErrMax= 8.82D-05  0.00D+00 EMaxC= 1.00D-01 BMatC= 1.58D-07 BMatP= 1.65D-06
 IDIUse=1 WtCom= 1.00D+00 WtEn= 0.00D+00
 Coeff-Com:  0.312D-02-0.122D-01 0.235D-03 0.154D+00-0.697D+00 0.155D+01
 Coeff:      0.312D-02-0.122D-01 0.235D-03 0.154D+00-0.697D+00 0.155D+01
 Gap=     0.379 Goal=   None    Shift=    0.000
 RMSDP=8.69D-05 MaxDP=7.35D-04 DE=-1.19D-05 OVMax= 1.16D-03

 Cycle   7  Pass 1  IDiag  3:
 E= 0.108594072717665E-01 Delta-E=       -0.000001433303 Rises=F Damp=F
 DIIS: error= 3.25D-05 at cycle   7 NSaved=   7.
 NSaved= 7 IEnMin= 7 EnMin= 0.108594072717665E-01 IErMin= 7 ErrMin= 3.25D-05
 ErrMax= 3.25D-05  0.00D+00 EMaxC= 1.00D-01 BMatC= 1.43D-08 BMatP= 1.58D-07
 IDIUse=1 WtCom= 1.00D+00 WtEn= 0.00D+00
 Coeff-Com: -0.432D-03 0.120D-02 0.923D-03-0.278D-01 0.156D+00-0.644D+00
 Coeff-Com:  0.151D+01
 Coeff:     -0.432D-03 0.120D-02 0.923D-03-0.278D-01 0.156D+00-0.644D+00
 Coeff:      0.151D+01
 Gap=     0.379 Goal=   None    Shift=    0.000
 RMSDP=3.19D-05 MaxDP=3.03D-04 DE=-1.43D-06 OVMax= 3.98D-04

 Cycle   8  Pass 1  IDiag  3:
 E= 0.108592634776983E-01 Delta-E=       -0.000000143794 Rises=F Damp=F
 DIIS: error= 6.67D-06 at cycle   8 NSaved=   8.
 NSaved= 8 IEnMin= 8 EnMin= 0.108592634776983E-01 IErMin= 8 ErrMin= 6.67D-06
 ErrMax= 6.67D-06  0.00D+00 EMaxC= 1.00D-01 BMatC= 6.97D-10 BMatP= 1.43D-08
 IDIUse=1 WtCom= 1.00D+00 WtEn= 0.00D+00
 Coeff-Com:  0.295D-04 0.230D-03-0.156D-02 0.102D-01-0.538D-01 0.270D+00
 Coeff-Com: -0.822D+00 0.160D+01
 Coeff:      0.295D-04 0.230D-03-0.156D-02 0.102D-01-0.538D-01 0.270D+00
 Coeff:     -0.822D+00 0.160D+01
 Gap=     0.379 Goal=   None    Shift=    0.000
 RMSDP=6.81D-06 MaxDP=6.62D-05 DE=-1.44D-07 OVMax= 8.67D-05

 Cycle   9  Pass 1  IDiag  3:
 E= 0.108592573260751E-01 Delta-E=       -0.000000006152 Rises=F Damp=F
 DIIS: error= 7.23D-07 at cycle   9 NSaved=   9.
 NSaved= 9 IEnMin= 9 EnMin= 0.108592573260751E-01 IErMin= 9 ErrMin= 7.23D-07
 ErrMax= 7.23D-07  0.00D+00 EMaxC= 1.00D-01 BMatC= 1.90D-11 BMatP= 6.97D-10
 IDIUse=1 WtCom= 1.00D+00 WtEn= 0.00D+00
 Coeff-Com:  0.210D-04-0.232D-03 0.671D-03-0.283D-02 0.154D-01-0.941D-01
 Coeff-Com:  0.316D+00-0.712D+00 0.148D+01
 Coeff:      0.210D-04-0.232D-03 0.671D-03-0.283D-02 0.154D-01-0.941D-01
 Coeff:      0.316D+00-0.712D+00 0.148D+01
 Gap=     0.379 Goal=   None    Shift=    0.000
 RMSDP=8.52D-07 MaxDP=7.06D-06 DE=-6.15D-09 OVMax= 1.20D-05

 Cycle  10  Pass 1  IDiag  3:
 E= 0.108592572024833E-01 Delta-E=       -0.000000000124 Rises=F Damp=F
 DIIS: error= 1.37D-07 at cycle  10 NSaved=  10.
 NSaved=10 IEnMin=10 EnMin= 0.108592572024833E-01 IErMin=10 ErrMin= 1.37D-07
 ErrMax= 1.37D-07  0.00D+00 EMaxC= 1.00D-01 BMatC= 7.70D-13 BMatP= 1.90D-11
 IDIUse=1 WtCom= 1.00D+00 WtEn= 0.00D+00
 Coeff-Com: -0.137D-04 0.112D-03-0.283D-03 0.964D-03-0.491D-02 0.323D-01
 Coeff-Com: -0.112D+00 0.258D+00-0.661D+00 0.149D+01
 Coeff:     -0.137D-04 0.112D-03-0.283D-03 0.964D-03-0.491D-02 0.323D-01
 Coeff:     -0.112D+00 0.258D+00-0.661D+00 0.149D+01
 Gap=     0.379 Goal=   None    Shift=    0.000
 RMSDP=1.46D-07 MaxDP=7.37D-07 DE=-1.24D-10 OVMax= 1.62D-06

 Cycle  11  Pass 1  IDiag  3:
 E= 0.108592571980495E-01 Delta-E=       -0.000000000004 Rises=F Damp=F
 DIIS: error= 2.07D-08 at cycle  11 NSaved=  11.
 NSaved=11 IEnMin=11 EnMin= 0.108592571980495E-01 IErMin=11 ErrMin= 2.07D-08
 ErrMax= 2.07D-08  0.00D+00 EMaxC= 1.00D-01 BMatC= 2.28D-14 BMatP= 7.70D-13
 IDIUse=1 WtCom= 1.00D+00 WtEn= 0.00D+00
 Coeff-Com:  0.371D-05-0.298D-04 0.733D-04-0.246D-03 0.119D-02-0.806D-02
 Coeff-Com:  0.279D-01-0.636D-01 0.172D+00-0.484D+00 0.135D+01
 Coeff:      0.371D-05-0.298D-04 0.733D-04-0.246D-03 0.119D-02-0.806D-02
 Coeff:      0.279D-01-0.636D-01 0.172D+00-0.484D+00 0.135D+01
 Gap=     0.379 Goal=   None    Shift=    0.000
 RMSDP=2.10D-08 MaxDP=1.23D-07 DE=-4.43D-12 OVMax= 1.29D-07

 Cycle  12  Pass 1  IDiag  3:
 E= 0.108592571980779E-01 Delta-E=        0.000000000000 Rises=F Damp=F
 DIIS: error= 4.04D-09 at cycle  12 NSaved=  12.
 NSaved=12 IEnMin=11 EnMin= 0.108592571980495E-01 IErMin=12 ErrMin= 4.04D-09
 ErrMax= 4.04D-09  0.00D+00 EMaxC= 1.00D-01 BMatC= 1.16D-15 BMatP= 2.28D-14
 IDIUse=1 WtCom= 1.00D+00 WtEn= 0.00D+00
 Coeff-Com: -0.303D-06 0.245D-05-0.534D-05 0.184D-04-0.698D-04 0.539D-03
 Coeff-Com: -0.184D-02 0.371D-02-0.120D-01 0.528D-01-0.374D+00 0.133D+01
 Coeff:     -0.303D-06 0.245D-05-0.534D-05 0.184D-04-0.698D-04 0.539D-03
 Coeff:     -0.184D-02 0.371D-02-0.120D-01 0.528D-01-0.374D+00 0.133D+01
 Gap=     0.379 Goal=   None    Shift=    0.000
 RMSDP=4.83D-09 MaxDP=3.24D-08 DE= 2.84D-14 OVMax= 3.40D-08

 Cycle  13  Pass 2  IDiag  1:
 SCF Done:  E(RAM1) =  0.108592571981E-01 A.U. after   13 cycles
            NFock= 12  Conv=0.48D-08     -V/T= 1.0007
 KE=-1.657292780719D+01 PE=-1.712317604647D+02 EE= 8.424090650700D+01
 Leave Link  502 at Thu Feb 25 12:57:22 2016, MaxMem=    33554432 cpu:         0.0
 (Enter /opt/g09/g09/l801.exe)
 Range of M.O.s used for correlation:     1    24
 NBasis=    24 NAE=    13 NBE=    13 NFC=     0 NFV=     0
 NROrb=     24 NOA=    13 NOB=    13 NVA=    11 NVB=    11
 Leave Link  801 at Thu Feb 25 12:57:22 2016, MaxMem=    33554432 cpu:         0.0
 (Enter /opt/g09/g09/l914.exe)
 RHF ground state
 MDV=    33554432 DFT=F DoStab=F Mixed=F DoRPA=F DoScal=F NonHer=F
 Making orbital integer symmetry assigments:
 Orbital symmetries:
       Occupied  (A1) (A1) (B2) (B2) (A1) (A1) (B1) (B2) (A1) (B2)
                 (A1) (B1) (A2)
       Virtual   (B1) (A2) (A1) (B2) (B2) (A1) (B2) (A1) (A1) (B2)
                 (B2)
    60 initial guesses have been made.
 Convergence on wavefunction:    0.000001000000000
 Davidson Disk Diagonalization:  ConvIn= 1.00D-06 SkipCon=T Conv= 1.00D-06.
 Max sub-space:   240 roots to seek:    60 dimension of matrix:          286
 Iteration     1 Dimension    60 NMult     0 NNew     60
 CISAX will form    60 AO SS matrices at one time.
 NMat=    60 NSing=    60 JSym2X= 0.
 FoFJK:  IHMeth= 8 ICntrl=       0 DoSepK=F KAlg= 0 I1Cent=   0 FoldK=F
 IRaf=         1 NMat= 120 IRICut=       1 DoRegI=T DoRafI=F ISym2E= 0.
 FoFCou: FMM=F IPFlag=           0 FMFlag=      100000 FMFlg1=           0
         NFxFlg=           0 DoJE=F BraDBF=F KetDBF=F FulRan=T
         wScrn=  0.000000 ICntrl=       0 IOpCl=  0 I1Cent=           0 NGrid=           0
         NMat0=  120 NMatS0=     60 NMatT0=    0 NMatD0=  120 NMtDS0=    0 NMtDT0=    0
 Symmetry not used in FoFCou.
 New state      2 was old state      4
 New state      3 was old state      2
 New state      4 was old state      7
 New state      5 was old state      8
 New state      6 was old state      9
 New state      7 was old state      3
 New state      8 was old state      5
 New state      9 was old state      6
 New state     10 was old state     13
 New state     11 was old state     16
 New state     12 was old state     15
 New state     13 was old state     24
 New state     14 was old state     18
 New state     15 was old state     19
 Excitation Energies [eV] at current iteration:
 Root      1 :     4.578325211578387
 Root      2 :     5.079871138659161
 Root      3 :     5.112295401102099
 Root      4 :     6.071360322329869
 Root      5 :     6.155255701055380
 Root      6 :     6.217018146046239
 Root      7 :     6.399309793423999
 Root      8 :     6.486518328215631
 Root      9 :     6.582453309091133
 Root     10 :     7.170401090082753
 Root     11 :     7.250923048827843
 Root     12 :     7.540196264212660
 Root     13 :     7.618782920129293
 Root     14 :     7.634944743894363
 Root     15 :     7.780466115714735
 Root     16 :     7.807200512419189
 Root     17 :     7.871887432447989
 Root     18 :     8.137011197877014
 Root     19 :     8.330387178412543
 Root     20 :     8.342850269671484
 Root     21 :     8.813361258518135
 Root     22 :     8.894334265300937
 Root     23 :     8.914028782546392
 Root     24 :     9.176132024695860
 Root     25 :     9.501164463339837
 Root     26 :     9.520744987637809
 Root     27 :     9.630345248787981
 Root     28 :     9.754114972582215
 Root     29 :     9.825578514381110
 Root     30 :     9.891253134799339
 Root     31 :     9.896214999040117
 Root     32 :     9.930513164099960
 Root     33 :    10.025980184995390
 Root     34 :    10.212088704874580
 Root     35 :    10.377392108019470
 Root     36 :    10.443353856135090
 Root     37 :    10.510928036776840
 Root     38 :    10.789668835003020
 Root     39 :    10.878474808527580
 Root     40 :    11.025398889451130
 Root     41 :    11.089019835944760
 Root     42 :    11.215348063245600
 Root     43 :    11.248252935098300
 Root     44 :    11.284496423270860
 Root     45 :    11.470677936015540
 Root     46 :    11.678405464437500
 Root     47 :    11.724585088808210
 Root     48 :    11.852503150367040
 Root     49 :    11.960565908914620
 Root     50 :    12.022876658769520
 Root     51 :    12.241747023811190
 Root     52 :    12.392064968959190
 Root     53 :    12.759068715292340
 Root     54 :    12.767901260775240
 Root     55 :    13.259152854156390
 Root     56 :    13.340249709825950
 Root     57 :    13.530640278223990
 Root     58 :    13.645265600795540
 Root     59 :    13.647542935339430
 Root     60 :    13.760358136043590
 Iteration     2 Dimension   113 NMult    60 NNew     53
 CISAX will form    53 AO SS matrices at one time.
 NMat=    53 NSing=    53 JSym2X= 0.
 Root      1 not converged, maximum delta is    0.041597135113994
 Root      2 not converged, maximum delta is    0.035513466778481
 Root      3 not converged, maximum delta is    0.017296006500236
 Root      4 not converged, maximum delta is    0.068113888065676
 Root      5 not converged, maximum delta is    0.074787968336551
 Root      6 not converged, maximum delta is    0.060839525264470
 Root      7 not converged, maximum delta is    0.042359074469607
 Root      8 not converged, maximum delta is    0.028946410303521
 Root      9 not converged, maximum delta is    0.046393037987106
 Root     10 not converged, maximum delta is    0.063356862052331
 Root     11 not converged, maximum delta is    0.028506411229386
 Root     12 not converged, maximum delta is    0.105567414712539
 Root     13 not converged, maximum delta is    0.146217679050136
 Root     14 not converged, maximum delta is    0.050647936966469
 New state     15 was old state     16
 Root     15 not converged, maximum delta is    0.080518826031062
 Excitation Energies [eV] at current iteration:
 Root      1 :     4.494602905108721   Change is   -0.083722306469666
 Root      2 :     5.050041872453654   Change is   -0.029829266205507
 Root      3 :     5.097504953758722   Change is   -0.014790447343377
 Root      4 :     5.995489663842585   Change is   -0.075870658487283
 Root      5 :     6.047981165316126   Change is   -0.107274535739254
 Root      6 :     6.082120270550074   Change is   -0.134897875496166
 Root      7 :     6.270890890413138   Change is   -0.128418903010861
 Root      8 :     6.425640959223127   Change is   -0.060877368992504
 Root      9 :     6.527261517122485   Change is   -0.055191791968648
 Root     10 :     7.058891834390302   Change is   -0.111509255692451
 Root     11 :     7.202753796176423   Change is   -0.048169252651420
 Root     12 :     7.416521507079765   Change is   -0.123674757132894
 Root     13 :     7.490549939531030   Change is   -0.128232980598264
 Root     14 :     7.586183296425097   Change is   -0.048761447469266
 Root     15 :     7.656292968683042   Change is   -0.150907543736147
 Root     16 :     7.727740864365395   Change is   -0.052725251349340
 Root     17 :     7.818308638117403   Change is   -0.053578794330586
 Root     18 :     8.036975305025914   Change is   -0.100035892851100
 Root     19 :     8.132966758868706   Change is   -0.197420419543838
 Root     20 :     8.226626989930399   Change is   -0.116223279741086
 Root     21 :     8.516630659563036   Change is   -0.296730598955100
 Root     22 :     8.768273771346754   Change is   -0.145755011199637
 Root     23 :     8.866758520596372   Change is   -0.027575744704566
 Root     24 :     9.044950402940385   Change is   -0.131181621755475
 Root     25 :     9.124787277225403   Change is   -0.395957710412406
 Root     26 :     9.346582966795317   Change is   -0.407532005786899
 Root     27 :     9.354635056508265   Change is   -0.146529406831572
 Root     28 :     9.435323535177105   Change is   -0.495189628922854
 Root     29 :     9.622419378432449   Change is   -0.007925870355532
 Root     30 :     9.648233327534108   Change is   -0.377746857461282
 Root     31 :     9.716079617347848   Change is   -0.727274238787241
 Root     32 :     9.741664769283970   Change is   -0.083913745097141
 Root     33 :     9.759757950792530   Change is   -0.452330754082053
 Root     34 :     9.794255811384790   Change is   -0.096997323414548
 Root     35 :     9.797307752796513   Change is   -0.098907246243605
 Root     36 :     9.902544113775546   Change is   -0.474847994243925
 Root     37 :    10.202333224740790   Change is   -0.308594812036055
 Root     38 :    10.264046458766180   Change is   -0.614428349761404
 Root     39 :    10.371177011940140   Change is   -0.418491823062881
 Root     40 :    10.709955876783090   Change is   -0.315443012668030
 Root     41 :    10.732329385648580   Change is   -0.552167037622286
 Root     42 :    10.869916723641710   Change is   -0.345431339603892
 Root     43 :    10.919325517746850   Change is   -0.328927417351451
 Root     44 :    10.942603889299010   Change is   -0.528074046716528
 Root     45 :    10.990893446506720   Change is   -0.098126389438045
 Root     46 :    11.380271340309650   Change is   -0.298134124127842
 Root     47 :    11.409424511187030   Change is   -0.315160577621183
 Root     48 :    11.605507730739860   Change is   -0.246995419627176
 Root     49 :    11.780268903912700   Change is   -0.242607754856824
 Root     50 :    11.815494403666930   Change is   -0.145071505247694
 Root     51 :    11.916571162265690   Change is   -0.325175861545503
 Root     52 :    12.073705189888770   Change is   -0.318359779070421
 Root     53 :    12.415597825033710   Change is   -0.343470890258636
 Root     54 :    12.429966744339710   Change is   -0.337934516435529
 Root     55 :    12.842209077993030
 Root     56 :    13.038169508048940   Change is   -0.220983346107451
 Root     57 :    13.041138007179030
 Root     58 :    13.080287362110000   Change is   -0.259962347715957
 Root     59 :    13.106112895045080   Change is   -0.541430040294351
 Root     60 :    13.410719522134750   Change is   -0.119920756089241
 Iteration     3 Dimension   117 NMult   113 NNew      4
 CISAX will form     4 AO SS matrices at one time.
 NMat=     4 NSing=     4 JSym2X= 0.
 Root      1 not converged, maximum delta is    0.003251216518822
 Root      2 has converged.
 Root      3 not converged, maximum delta is    0.000364979176970
 Root      4 has converged.
 Root      5 has converged.
 Root      6 has converged.
 Root      7 not converged, maximum delta is    0.001692406310886
 Root      8 not converged, maximum delta is    0.004361045077887
 Root      9 has converged.
 Root     10 has converged.
 Root     11 has converged.
 Root     12 has converged.
 Root     13 has converged.
 Root     14 has converged.
 Root     15 has converged.
 Excitation Energies [eV] at current iteration:
 Root      1 :     4.493931502446223   Change is   -0.000671402662498
 Root      2 :     5.050041872453648   Change is   -0.000000000000006
 Root      3 :     5.097466117490099   Change is   -0.000038836268623
 Root      4 :     5.995489663842555   Change is   -0.000000000000030
 Root      5 :     6.047981165316145   Change is    0.000000000000018
 Root      6 :     6.082120270550061   Change is   -0.000000000000012
 Root      7 :     6.270086079323450   Change is   -0.000804811089688
 Root      8 :     6.424564813614363   Change is   -0.001076145608764
 Root      9 :     6.527261517122454   Change is   -0.000000000000030
 Root     10 :     7.058891834390272   Change is   -0.000000000000030
 Root     11 :     7.202753796176435   Change is    0.000000000000012
 Root     12 :     7.416521507079747   Change is   -0.000000000000018
 Root     13 :     7.490549939531036   Change is    0.000000000000006
 Root     14 :     7.586183296425079   Change is   -0.000000000000018
 Root     15 :     7.656292968683036   Change is   -0.000000000000006
 Iteration     4 Dimension   121 NMult   117 NNew      4
 CISAX will form     4 AO SS matrices at one time.
 NMat=     4 NSing=     4 JSym2X= 0.
 Root      1 not converged, maximum delta is    0.000166981805852
 Root      2 has converged.
 Root      3 not converged, maximum delta is    0.000030649427410
 Root      4 has converged.
 Root      5 has converged.
 Root      6 has converged.
 Root      7 not converged, maximum delta is    0.000183644671511
 Root      8 not converged, maximum delta is    0.000266601465341
 Root      9 has converged.
 Root     10 has converged.
 Root     11 has converged.
 Root     12 has converged.
 Root     13 has converged.
 Root     14 has converged.
 Root     15 has converged.
 Excitation Energies [eV] at current iteration:
 Root      1 :     4.493926327067950   Change is   -0.000005175378273
 Root      2 :     5.050041872453642   Change is   -0.000000000000006
 Root      3 :     5.097465979312402   Change is   -0.000000138177698
 Root      4 :     5.995489663842574   Change is    0.000000000000018
 Root      5 :     6.047981165316139   Change is   -0.000000000000006
 Root      6 :     6.082120270550061   Change is    0.000000000000000
 Root      7 :     6.270079126883855   Change is   -0.000006952439594
 Root      8 :     6.424554406904517   Change is   -0.000010406709846
 Root      9 :     6.527261517122461   Change is    0.000000000000006
 Root     10 :     7.058891834390308   Change is    0.000000000000036
 Root     11 :     7.202753796176423   Change is   -0.000000000000012
 Root     12 :     7.416521507079771   Change is    0.000000000000024
 Root     13 :     7.490549939531030   Change is   -0.000000000000006
 Root     14 :     7.586183296425091   Change is    0.000000000000012
 Root     15 :     7.656292968683054   Change is    0.000000000000018
 Iteration     5 Dimension   125 NMult   121 NNew      4
 CISAX will form     4 AO SS matrices at one time.
 NMat=     4 NSing=     4 JSym2X= 0.
 Root      1 not converged, maximum delta is    0.000013425800394
 Root      2 has converged.
 Root      3 not converged, maximum delta is    0.000001933167160
 Root      4 has converged.
 Root      5 has converged.
 Root      6 has converged.
 Root      7 not converged, maximum delta is    0.000023051947649
 Root      8 not converged, maximum delta is    0.000050749676245
 Root      9 has converged.
 Root     10 has converged.
 Root     11 has converged.
 Root     12 has converged.
 Root     13 has converged.
 Root     14 has converged.
 Root     15 has converged.
 Excitation Energies [eV] at current iteration:
 Root      1 :     4.493926293777747   Change is   -0.000000033290203
 Root      2 :     5.050041872453661   Change is    0.000000000000018
 Root      3 :     5.097465978293195   Change is   -0.000000001019206
 Root      4 :     5.995489663842561   Change is   -0.000000000000012
 Root      5 :     6.047981165316139   Change is    0.000000000000000
 Root      6 :     6.082120270550080   Change is    0.000000000000018
 Root      7 :     6.270079014627118   Change is   -0.000000112256738
 Root      8 :     6.424554108825346   Change is   -0.000000298079170
 Root      9 :     6.527261517122485   Change is    0.000000000000024
 Root     10 :     7.058891834390290   Change is   -0.000000000000018
 Root     11 :     7.202753796176429   Change is    0.000000000000006
 Root     12 :     7.416521507079765   Change is   -0.000000000000006
 Root     13 :     7.490549939531030   Change is    0.000000000000000
 Root     14 :     7.586183296425097   Change is    0.000000000000006
 Root     15 :     7.656292968683048   Change is   -0.000000000000006
 Iteration     6 Dimension   129 NMult   125 NNew      4
 CISAX will form     4 AO SS matrices at one time.
 NMat=     4 NSing=     4 JSym2X= 0.
 Root      1 has converged.
 Root      2 has converged.
 Root      3 has converged.
 Root      4 has converged.
 Root      5 has converged.
 Root      6 has converged.
 Root      7 not converged, maximum delta is    0.000001346503413
 Root      8 not converged, maximum delta is    0.000006722907724
 Root      9 has converged.
 Root     10 has converged.
 Root     11 has converged.
 Root     12 has converged.
 Root     13 has converged.
 Root     14 has converged.
 Root     15 has converged.
 Excitation Energies [eV] at current iteration:
 Root      1 :     4.493926293675411   Change is   -0.000000000102336
 Root      2 :     5.050041872453624   Change is   -0.000000000000036
 Root      3 :     5.097465978291841   Change is   -0.000000000001353
 Root      4 :     5.995489663842604   Change is    0.000000000000042
 Root      5 :     6.047981165316120   Change is   -0.000000000000018
 Root      6 :     6.082120270550056   Change is   -0.000000000000024
 Root      7 :     6.270079014320763   Change is   -0.000000000306355
 Root      8 :     6.424554105639011   Change is   -0.000000003186335
 Root      9 :     6.527261517122485   Change is    0.000000000000000
 Root     10 :     7.058891834390248   Change is   -0.000000000000042
 Root     11 :     7.202753796176447   Change is    0.000000000000018
 Root     12 :     7.416521507079753   Change is   -0.000000000000012
 Root     13 :     7.490549939531072   Change is    0.000000000000042
 Root     14 :     7.586183296425115   Change is    0.000000000000018
 Root     15 :     7.656292968683048   Change is    0.000000000000000
 Iteration     7 Dimension   131 NMult   129 NNew      2
 CISAX will form     2 AO SS matrices at one time.
 NMat=     2 NSing=     2 JSym2X= 0.
 Root      1 has converged.
 Root      2 has converged.
 Root      3 has converged.
 Root      4 has converged.
 Root      5 has converged.
 Root      6 has converged.
 Root      7 has converged.
 Root      8 has converged.
 Root      9 has converged.
 Root     10 has converged.
 Root     11 has converged.
 Root     12 has converged.
 Root     13 has converged.
 Root     14 has converged.
 Root     15 has converged.
 Excitation Energies [eV] at current iteration:
 Root      1 :     4.493926293675031   Change is   -0.000000000000381
 Root      2 :     5.050041872453636   Change is    0.000000000000012
 Root      3 :     5.097465978291811   Change is   -0.000000000000030
 Root      4 :     5.995489663842555   Change is   -0.000000000000048
 Root      5 :     6.047981165316115   Change is   -0.000000000000006
 Root      6 :     6.082120270550043   Change is   -0.000000000000012
 Root      7 :     6.270079014319428   Change is   -0.000000000001335
 Root      8 :     6.424554105609150   Change is   -0.000000000029860
 Root      9 :     6.527261517122437   Change is   -0.000000000000048
 Root     10 :     7.058891834390290   Change is    0.000000000000042
 Root     11 :     7.202753796176435   Change is   -0.000000000000012
 Root     12 :     7.416521507079741   Change is   -0.000000000000012
 Root     13 :     7.490549939531012   Change is   -0.000000000000060
 Root     14 :     7.586183296425085   Change is   -0.000000000000030
 Root     15 :     7.656292968683036   Change is   -0.000000000000012
 Convergence achieved on expansion vectors.
 ***********************************************************************
 Excited states from <AA,BB:AA,BB> singles matrix:
 ***********************************************************************
 
 1PDM for each excited state written to RWF  633
 Ground to excited state transition densities written to RWF  633
 Ground to excited state transition electric dipole moments (Au):
       state          X           Y           Z        Dip. S.      Osc.
         1         0.0000     -0.8849      0.0000      0.7831      0.0862
         2         0.0000      0.0000      0.0000      0.0000      0.0000
         3         0.0000      0.0000      0.2373      0.0563      0.0070
         4        -0.1315      0.0000      0.0000      0.0173      0.0025
         5         0.0111      0.0000      0.0000      0.0001      0.0000
         6         0.0000      0.0000      0.0000      0.0000      0.0000
         7         0.0000      0.0000     -1.6209      2.6273      0.4036
         8         0.0000     -0.9093      0.0000      0.8267      0.1301
         9         0.0625      0.0000      0.0000      0.0039      0.0006
        10         0.0000      0.0000      0.0000      0.0000      0.0000
        11         0.1060      0.0000      0.0000      0.0112      0.0020
        12         0.0000      0.0000      0.0000      0.0000      0.0000
        13         0.0000      0.0000      0.0000      0.0000      0.0000
        14         0.0366      0.0000      0.0000      0.0013      0.0002
        15         0.0000      0.0000      0.0000      0.0000      0.0000
 Ground to excited state transition velocity dipole moments (Au):
       state          X           Y           Z        Dip. S.      Osc.
         1         0.0000      0.0468      0.0000      0.0022      0.0088
         2         0.0000      0.0000      0.0000      0.0000      0.0000
         3         0.0000      0.0000     -0.0104      0.0001      0.0004
         4         0.0886      0.0000      0.0000      0.0079      0.0238
         5         0.0220      0.0000      0.0000      0.0005      0.0014
         6         0.0000      0.0000      0.0000      0.0000      0.0000
         7         0.0000      0.0000      0.3352      0.1123      0.3251
         8         0.0000      0.1620      0.0000      0.0262      0.0741
         9        -0.1833      0.0000      0.0000      0.0336      0.0934
        10         0.0000      0.0000      0.0000      0.0000      0.0000
        11         0.0196      0.0000      0.0000      0.0004      0.0010
        12         0.0000      0.0000      0.0000      0.0000      0.0000
        13         0.0000      0.0000      0.0000      0.0000      0.0000
        14         0.0617      0.0000      0.0000      0.0038      0.0091
        15         0.0000      0.0000      0.0000      0.0000      0.0000
 Ground to excited state transition magnetic dipole moments (Au):
       state          X           Y           Z
         1         0.6718      0.0000      0.0000
         2         0.0000      0.0000     -0.6453
         3         0.0000      0.0000      0.0000
         4         0.0000      0.3330      0.0000
         5         0.0000     -0.1495      0.0000
         6         0.0000      0.0000      0.0937
         7         0.0000      0.0000      0.0000
         8         0.0610      0.0000      0.0000
         9         0.0000      0.1168      0.0000
        10         0.0000      0.0000      0.8326
        11         0.0000     -1.8401      0.0000
        12         0.0000      0.0000      0.8128
        13         0.0000      0.0000      0.0276
        14         0.0000     -0.4647      0.0000
        15         0.0000      0.0000      0.2142
 Ground to excited state transition velocity quadrupole moments (Au):
       state          XX          YY          ZZ          XY          XZ          YZ
         1         0.0000      0.0000      0.0000      0.0000      0.0000      0.4878
         2         0.0000      0.0000      0.0000     -0.1608      0.0000      0.0000
         3        -0.0742     -0.0904      0.1409      0.0000      0.0000      0.0000
         4         0.0000      0.0000      0.0000      0.0000      0.3109      0.0000
         5         0.0000      0.0000      0.0000      0.0000     -0.1242      0.0000
         6         0.0000      0.0000      0.0000     -0.1517      0.0000      0.0000
         7        -0.0409      0.4746     -0.2755      0.0000      0.0000      0.0000
         8         0.0000      0.0000      0.0000      0.0000      0.0000     -0.5408
         9         0.0000      0.0000      0.0000      0.0000     -0.0418      0.0000
        10         0.0000      0.0000      0.0000     -0.3064      0.0000      0.0000
        11         0.0000      0.0000      0.0000      0.0000      0.0776      0.0000
        12         0.0000      0.0000      0.0000      0.1894      0.0000      0.0000
        13         0.0000      0.0000      0.0000     -0.1485      0.0000      0.0000
        14         0.0000      0.0000      0.0000      0.0000     -0.3501      0.0000
        15         0.0000      0.0000      0.0000     -0.0466      0.0000      0.0000
 <0|del|b> * <b|rxdel|0> + <0|del|b> * <b|delr+rdel|0>
 Rotatory Strengths (R) in cgs (10**-40 erg-esu-cm/Gauss)
       state          XX          YY          ZZ    R(velocity)    E-M Angle
         1         0.0000      0.0000      0.0000      0.0000       90.00
         2         0.0000      0.0000      0.0000      0.0000       90.00
         3         0.0000      0.0000      0.0000      0.0000       90.00
         4         0.0000      0.0000      0.0000      0.0000       90.00
         5         0.0000      0.0000      0.0000      0.0000       90.00
         6         0.0000      0.0000      0.0000      0.0000       90.00
         7         0.0000      0.0000      0.0000      0.0000       90.00
         8         0.0000      0.0000      0.0000      0.0000       90.00
         9         0.0000      0.0000      0.0000      0.0000       90.00
        10         0.0000      0.0000      0.0000      0.0000       90.00
        11         0.0000      0.0000      0.0000      0.0000       90.00
        12         0.0000      0.0000      0.0000      0.0000       90.00
        13         0.0000      0.0000      0.0000      0.0000       90.00
        14         0.0000      0.0000      0.0000      0.0000       90.00
        15         0.0000      0.0000      0.0000      0.0000       90.00
 1/2[<0|r|b>*<b|rxdel|0> + (<0|rxdel|b>*<b|r|0>)*]
 Rotatory Strengths (R) in cgs (10**-40 erg-esu-cm/Gauss)
       state          XX          YY          ZZ     R(length)
         1         0.0000      0.0000      0.0000      0.0000
         2         0.0000      0.0000      0.0000      0.0000
         3         0.0000      0.0000      0.0000      0.0000
         4         0.0000      0.0000      0.0000      0.0000
         5         0.0000      0.0000      0.0000      0.0000
         6         0.0000      0.0000      0.0000      0.0000
         7         0.0000      0.0000      0.0000      0.0000
         8         0.0000      0.0000      0.0000      0.0000
         9         0.0000      0.0000      0.0000      0.0000
        10         0.0000      0.0000      0.0000      0.0000
        11         0.0000      0.0000      0.0000      0.0000
        12         0.0000      0.0000      0.0000      0.0000
        13         0.0000      0.0000      0.0000      0.0000
        14         0.0000      0.0000      0.0000      0.0000
        15         0.0000      0.0000      0.0000      0.0000
  1/2[<0|del|b>*<b|r|0> + (<0|r|b>*<b|del|0>)*] (Au)
       state          X           Y           Z        Dip. S.   Osc.(frdel)
         1         0.0000     -0.0414      0.0000      0.0414      0.0276
         2         0.0000      0.0000      0.0000      0.0000      0.0000
         3         0.0000      0.0000     -0.0025      0.0025      0.0016
         4        -0.0117      0.0000      0.0000      0.0117      0.0078
         5         0.0002      0.0000      0.0000     -0.0002     -0.0002
         6         0.0000      0.0000      0.0000      0.0000      0.0000
         7         0.0000      0.0000     -0.5433      0.5433      0.3622
         8         0.0000     -0.1473      0.0000      0.1473      0.0982
         9        -0.0114      0.0000      0.0000      0.0114      0.0076
        10         0.0000      0.0000      0.0000      0.0000      0.0000
        11         0.0021      0.0000      0.0000     -0.0021     -0.0014
        12         0.0000      0.0000      0.0000      0.0000      0.0000
        13         0.0000      0.0000      0.0000      0.0000      0.0000
        14         0.0023      0.0000      0.0000     -0.0023     -0.0015
        15         0.0000      0.0000      0.0000      0.0000      0.0000

 Excitation energies and oscillator strengths:
 
 Excited State   1:      Singlet-B2     4.4939 eV  275.89 nm  f=0.0862  <S**2>=0.000
      12 -> 15        -0.20672
      13 -> 14         0.66913
 This state for optimization and/or second-order correction.
 Total Energy, E(CIS) =  0.176008016876    
 Copying the excited state density for this state as the 1-particle RhoCI density.
 
 Excited State   2:      Singlet-A2     5.0500 eV  245.51 nm  f=0.0000  <S**2>=0.000
      13 -> 16         0.68817
      13 -> 22        -0.11763
 
 Excited State   3:      Singlet-A1     5.0975 eV  243.23 nm  f=0.0070  <S**2>=0.000
      12 -> 14         0.42227
      13 -> 15         0.56290
 
 Excited State   4:      Singlet-B1     5.9955 eV  206.80 nm  f=0.0025  <S**2>=0.000
       7 -> 16        -0.11656
      12 -> 16         0.46583
      12 -> 22        -0.20762
      13 -> 17         0.17882
      13 -> 18        -0.36003
      13 -> 23        -0.17387
 
 Excited State   5:      Singlet-B1     6.0480 eV  205.00 nm  f=0.0000  <S**2>=0.000
       7 -> 16        -0.14878
      12 -> 16         0.45932
      12 -> 19         0.17927
      12 -> 21        -0.13385
      13 -> 17        -0.17481
      13 -> 18         0.33960
      13 -> 23         0.22256
 
 Excited State   6:      Singlet-A2     6.0821 eV  203.85 nm  f=0.0000  <S**2>=0.000
      12 -> 17        -0.11439
      12 -> 18         0.23616
      12 -> 23         0.15040
      13 -> 19         0.45524
      13 -> 21        -0.26557
      13 -> 22         0.32133
 
 Excited State   7:      Singlet-A1     6.2701 eV  197.74 nm  f=0.4036  <S**2>=0.000
       9 -> 16        -0.12570
      12 -> 14         0.53144
      13 -> 15        -0.40609
 
 Excited State   8:      Singlet-B2     6.4246 eV  192.98 nm  f=0.1301  <S**2>=0.000
      12 -> 15         0.66741
      13 -> 14         0.19313
 
 Excited State   9:      Singlet-B1     6.5273 eV  189.95 nm  f=0.0006  <S**2>=0.000
      12 -> 19        -0.10598
      13 -> 17         0.56205
      13 -> 18         0.36775
      13 -> 23        -0.10053
 
 Excited State  10:      Singlet-A2     7.0589 eV  175.64 nm  f=0.0000  <S**2>=0.000
      12 -> 17         0.40524
      12 -> 18         0.40035
      12 -> 20         0.22237
      12 -> 23        -0.12798
      13 -> 19        -0.25304
      13 -> 22         0.17371
 
 Excited State  11:      Singlet-B1     7.2028 eV  172.13 nm  f=0.0020  <S**2>=0.000
       9 -> 14         0.51162
      10 -> 15        -0.30439
      11 -> 14         0.32917
 
 Excited State  12:      Singlet-A2     7.4165 eV  167.17 nm  f=0.0000  <S**2>=0.000
       8 -> 14         0.11047
       9 -> 15        -0.13640
      10 -> 14         0.51527
      11 -> 15        -0.38941
      13 -> 22         0.14632
 
 Excited State  13:      Singlet-A2     7.4905 eV  165.52 nm  f=0.0000  <S**2>=0.000
       9 -> 15        -0.14321
      10 -> 14         0.19272
      12 -> 17         0.30706
      12 -> 18        -0.26198
      12 -> 20         0.27001
      12 -> 23        -0.17602
      13 -> 19         0.34659
      13 -> 21         0.16343
 
 Excited State  14:      Singlet-B1     7.5862 eV  163.43 nm  f=0.0002  <S**2>=0.000
       9 -> 14        -0.14178
      12 -> 19         0.38235
      12 -> 22         0.25816
      13 -> 17         0.20866
      13 -> 18        -0.25475
      13 -> 20         0.27385
      13 -> 24        -0.26265
 
 Excited State  15:      Singlet-A2     7.6563 eV  161.94 nm  f=0.0000  <S**2>=0.000
      11 -> 15         0.10951
      12 -> 17         0.10553
      12 -> 18        -0.30195
      12 -> 20        -0.14752
      13 -> 16         0.10392
      13 -> 19        -0.15489
      13 -> 21         0.11860
      13 -> 22         0.52897
 SavETr:  write IOETrn=   770 NScale= 10 NData=  16 NLR=1 NState=   15 LETran=     280.
 The selected state is a singlet
 CISAX will form     1 AO SS matrices at one time.
 NMat=     1 NSing=     1 JSym2X= 0.
 Leave Link  914 at Thu Feb 25 12:57:22 2016, MaxMem=    33554432 cpu:         0.1
 (Enter /opt/g09/g09/l1002.exe)
 Minotr:  Closed shell wavefunction.
          Computing CIS/TD-HF/TD-KS derivatives.
          Using Z-Vector for PSCF gradient.
          Skipping F1 and S1 gradient terms here.
          IDoAtm=111111111
          Direct CPHF calculation.
          Differentiating once with respect to electric field.
                with respect to dipole field.
          Differentiating once with respect to nuclear coordinates.
          Electric field/nuclear overlap derivatives assumed to be zero.
          Requested convergence is 1.0D-10 RMS, and 1.0D-09 maximum.
          NewPWx=T KeepS1=F KeepF1=F KeepIn=T MapXYZ=F SortEE=F KeepMc=T.
          MDV=      33495423 using IRadAn=       0.
 Keep J ints in memory in canonical form, NReq=871758.
 FoFCou: FMM=F IPFlag=           0 FMFlag=           0 FMFlg1=           0
         NFxFlg=           0 DoJE=F BraDBF=F KetDBF=F FulRan=T
         wScrn=  0.000000 ICntrl=     600 IOpCl=  2 I1Cent=           0 NGrid=           0
         NMat0=    1 NMatS0=     54 NMatT0=    0 NMatD0=    1 NMtDS0=    0 NMtDT0=    0
 Symmetry not used in FoFCou.
          Solving linear equations separately, MaxMat=       0.
          There are     1 degrees of freedom in the 1st order CPHF.  IDoFFX=0 NUNeed=     1.
 LinEq1:  Iter=  0 NonCon=     1 RMS=1.15D-02 Max=8.51D-02 NDo=     1
 AX will form     1 AO Fock derivatives at one time.
 LinEq1:  Iter=  1 NonCon=     1 RMS=2.15D-03 Max=1.56D-02 NDo=     1
 LinEq1:  Iter=  2 NonCon=     1 RMS=3.42D-04 Max=2.63D-03 NDo=     1
 LinEq1:  Iter=  3 NonCon=     1 RMS=4.44D-05 Max=2.51D-04 NDo=     1
 LinEq1:  Iter=  4 NonCon=     1 RMS=3.90D-06 Max=1.65D-05 NDo=     1
 LinEq1:  Iter=  5 NonCon=     1 RMS=4.36D-07 Max=2.06D-06 NDo=     1
 LinEq1:  Iter=  6 NonCon=     1 RMS=4.89D-08 Max=1.90D-07 NDo=     1
 LinEq1:  Iter=  7 NonCon=     1 RMS=5.11D-09 Max=2.83D-08 NDo=     1
 LinEq1:  Iter=  8 NonCon=     1 RMS=5.01D-10 Max=2.29D-09 NDo=     1
 LinEq1:  Iter=  9 NonCon=     0 RMS=4.19D-11 Max=1.74D-10 NDo=     1
 Linear equations converged to 1.000D-10 1.000D-09 after     9 iterations.
 End of Minotr F.D. properties file   721 does not exist.
 End of Minotr F.D. properties file   722 does not exist.
 End of Minotr F.D. properties file   788 does not exist.
 Leave Link 1002 at Thu Feb 25 12:57:22 2016, MaxMem=    33554432 cpu:         0.0
 (Enter /opt/g09/g09/l1101.exe)
 Using compressed Sx but separate Hx and Fx, NAtomX=     9.
 Will process     10 centers per pass.
 Leave Link 1101 at Thu Feb 25 12:57:22 2016, MaxMem=    33554432 cpu:         0.0
 (Enter /opt/g09/g09/l1102.exe)
 Use density number 6.
 Symmetrizing basis deriv contribution to polar:
 IMax=3 JMax=2 DiffMx= 0.00D+00
 Leave Link 1102 at Thu Feb 25 12:57:22 2016, MaxMem=    33554432 cpu:         0.0
 (Enter /opt/g09/g09/l1110.exe)
 Forming Gx(P) for the SCF density, NAtomX=     9.
 Integral derivatives from FoFJK, PRISM(SPDF).
 Do as many integral derivatives as possible in FoFJK.
 G2DrvN: MDV=      33495365.
 G2DrvN: will do    10 centers at a time, making    1 passes.
 Calling FoFCou, ICntrl=  3107 FMM=F I1Cent=   0 AccDes= 0.00D+00.
 FoFJK:  IHMeth= 8 ICntrl=    3107 DoSepK=F KAlg= 0 I1Cent=   0 FoldK=F
 IRaf=         0 NMat=   1 IRICut=       1 DoRegI=T DoRafI=F ISym2E= 0.
 FoFCou: FMM=F IPFlag=           0 FMFlag=      100000 FMFlg1=           0
         NFxFlg=           0 DoJE=F BraDBF=F KetDBF=F FulRan=T
         wScrn=  0.000000 ICntrl=    3107 IOpCl=  0 I1Cent=           0 NGrid=           0
         NMat0=    1 NMatS0=      1 NMatT0=    0 NMatD0=    1 NMtDS0=    0 NMtDT0=    0
 Symmetry not used in FoFCou.
 Forming Gx(P) for generalized density number  6 NAtomX=     9.
 Integral derivatives from FoFJK, PRISM(SPDF).
 Do as many integral derivatives as possible in FoFJK.
 G2DrvN: MDV=      33495365.
 G2DrvN: will do    10 centers at a time, making    1 passes.
 Calling FoFCou, ICntrl=  3107 FMM=F I1Cent=   0 AccDes= 0.00D+00.
 Forming Gx(T) for CIS state  1 NAtomX=     9.
 Integral derivatives from FoFJK, PRISM(SPDF).
 Do as many integral derivatives as possible in FoFJK.
 G2DrvN: MDV=      33495365.
 G2DrvN: will do    10 centers at a time, making    1 passes.
 Calling FoFCou, ICntrl=  3307 FMM=F I1Cent=   0 AccDes= 0.00D+00.
 End of G2Drv F.D. properties file   721 does not exist.
 End of G2Drv F.D. properties file   722 does not exist.
 End of G2Drv F.D. properties file   788 does not exist.
 Leave Link 1110 at Thu Feb 25 12:57:22 2016, MaxMem=    33554432 cpu:         0.0
 (Enter /opt/g09/g09/l1002.exe)
 Minotr:  Closed shell wavefunction.
          IDoAtm=111111111
          Direct CPHF calculation.
          Differentiating once with respect to electric field.
                with respect to dipole field.
          Differentiating once with respect to nuclear coordinates.
          Electric field/nuclear overlap derivatives assumed to be zero.
          Requested convergence is 1.0D-08 RMS, and 1.0D-07 maximum.
          NewPWx=T KeepS1=T KeepF1=T KeepIn=T MapXYZ=F SortEE=F KeepMc=T.
          MDV=      33495423 using IRadAn=       2.
 Keep J ints in memory in canonical form, NReq=871758.
 FoFCou: FMM=F IPFlag=           0 FMFlag=           0 FMFlg1=           0
         NFxFlg=           0 DoJE=F BraDBF=F KetDBF=F FulRan=T
         wScrn=  0.000000 ICntrl=     600 IOpCl=  2 I1Cent=           0 NGrid=           0
         NMat0=    1 NMatS0=     54 NMatT0=    0 NMatD0=    1 NMtDS0=    0 NMtDT0=    0
 Symmetry not used in FoFCou.
          Solving linear equations separately, MaxMat=       0.
          There are    30 degrees of freedom in the 1st order CPHF.  IDoFFX=5 NUNeed=    30.
 LinEq1:  Iter=  0 NonCon=    30 RMS=3.83D-01 Max=2.90D+00 NDo=    30
 AX will form    30 AO Fock derivatives at one time.
 LinEq1:  Iter=  1 NonCon=    30 RMS=5.68D-02 Max=2.81D-01 NDo=    30
 LinEq1:  Iter=  2 NonCon=    30 RMS=4.40D-03 Max=2.93D-02 NDo=    30
 LinEq1:  Iter=  3 NonCon=    30 RMS=5.62D-04 Max=2.79D-03 NDo=    30
 LinEq1:  Iter=  4 NonCon=    30 RMS=7.35D-05 Max=3.25D-04 NDo=    30
 LinEq1:  Iter=  5 NonCon=    30 RMS=6.42D-06 Max=2.61D-05 NDo=    30
 LinEq1:  Iter=  6 NonCon=    26 RMS=7.77D-07 Max=3.12D-06 NDo=    30
 LinEq1:  Iter=  7 NonCon=    13 RMS=8.39D-08 Max=4.26D-07 NDo=    30
 LinEq1:  Iter=  8 NonCon=     0 RMS=5.95D-09 Max=3.18D-08 NDo=    30
 Linear equations converged to 1.000D-08 1.000D-07 after     8 iterations.
 FullF1:  Do perturbations    1 to    30.
 Saving first derivative matrices.
 End of Minotr F.D. properties file   721 does not exist.
 End of Minotr F.D. properties file   722 does not exist.
 End of Minotr F.D. properties file   788 does not exist.
 Leave Link 1002 at Thu Feb 25 12:57:22 2016, MaxMem=    33554432 cpu:         0.0
 (Enter /opt/g09/g09/l1014.exe)
 Doing CIS second derivatives.
 This link is doing    30 degrees of freedom
 Form MO integral derivatives with frozen-active canonical formalism.
 CisSec: MDV=      33495466
 Symmetry is being used.
 The selected state is a singlet
 Computing gradients using direct method.
 CISAX will form    30 AO SS matrices at one time.
 NMat=    30 NSing=    30 JSym2X= 0.
 FoFJK:  IHMeth= 8 ICntrl=       0 DoSepK=F KAlg= 0 I1Cent=   0 FoldK=F
 IRaf=         0 NMat=  60 IRICut=       1 DoRegI=T DoRafI=F ISym2E= 0.
 FoFCou: FMM=F IPFlag=           0 FMFlag=      100000 FMFlg1=           0
         NFxFlg=           0 DoJE=F BraDBF=F KetDBF=F FulRan=T
         wScrn=  0.000000 ICntrl=       0 IOpCl=  0 I1Cent=           0 NGrid=           0
         NMat0=   60 NMatS0=     30 NMatT0=    0 NMatD0=   60 NMtDS0=    0 NMtDT0=    0
 Symmetry not used in FoFCou.
 Symmetry is being used.
     30 vectors produced by pass  0 Test12= 4.77D-16 3.33D-09 XBig12= 4.73D+00 1.66D+00.
 AX will form    30 AO Fock derivatives at one time.
     29 vectors produced by pass  1 Test12= 4.77D-16 3.33D-09 XBig12= 3.28D-02 9.82D-02.
     27 vectors produced by pass  2 Test12= 4.77D-16 3.33D-09 XBig12= 2.42D-04 7.05D-03.
     27 vectors produced by pass  3 Test12= 4.77D-16 3.33D-09 XBig12= 3.40D-06 8.82D-04.
     24 vectors produced by pass  4 Test12= 4.77D-16 3.33D-09 XBig12= 3.26D-09 2.99D-05.
      6 vectors produced by pass  5 Test12= 4.77D-16 3.33D-09 XBig12= 3.48D-12 1.09D-06.
 InvSVY:  IOpt=1 It=  1 EMax= 9.85D-16
 Solved reduced A of dimension   143 with    30 vectors.
 Max Tx.T =      0.000000001389 for Degree =     3
 The selected state is a singlet
 Computing gradients using direct method.
 CISAX will form    30 AO SS matrices at one time.
 NMat=    30 NSing=    30 JSym2X= 0.
 Interchange theorem applied.
 Leave Link 1014 at Thu Feb 25 12:57:22 2016, MaxMem=    33554432 cpu:         0.0
 (Enter /opt/g09/g09/l601.exe)
 Copying SCF densities to generalized density rwf, IOpCl= 0 IROHF=0.

 **********************************************************************

            Population analysis using the SCF density.

 **********************************************************************

 Orbital symmetries:
       Occupied  (A1) (A1) (B2) (B2) (A1) (A1) (B1) (B2) (A1) (B2)
                 (A1) (B1) (A2)
       Virtual   (B1) (A2) (A1) (B2) (B2) (A1) (B2) (A1) (A1) (B2)
                 (B2)
 The electronic state is 1-A1.
 Alpha  occ. eigenvalues --   -1.56990  -1.23725  -1.10195  -0.82517  -0.81473
 Alpha  occ. eigenvalues --   -0.68658  -0.60371  -0.56598  -0.50775  -0.50730
 Alpha  occ. eigenvalues --   -0.49860  -0.39473  -0.34779
 Alpha virt. eigenvalues --    0.03154   0.06415   0.09836   0.14070   0.14951
 Alpha virt. eigenvalues --    0.15335   0.18077   0.18272   0.18989   0.20723
 Alpha virt. eigenvalues --    0.22421
     Molecular Orbital Coefficients:
                           1         2         3         4         5
                        (A1)--O   (A1)--O   (B2)--O   (B2)--O   (A1)--O
     Eigenvalues --    -1.56990  -1.23725  -1.10195  -0.82517  -0.81473
   1 1   C  1S          0.28155  -0.47045   0.29259  -0.34651  -0.24895
   2        1PX         0.00000   0.00000   0.00000   0.00000   0.00000
   3        1PY        -0.06567   0.08916   0.15248  -0.19149   0.19443
   4        1PZ         0.11233  -0.03543   0.12380   0.02198   0.27960
   5 2   C  1S          0.36695  -0.12188   0.51534   0.11375   0.39173
   6        1PX         0.00000   0.00000   0.00000   0.00000   0.00000
   7        1PY        -0.18383  -0.05163   0.01029  -0.08391   0.13346
   8        1PZ         0.01217   0.23567  -0.02648   0.36476   0.00857
   9 3   O  1S          0.64039   0.58839   0.00000   0.00000  -0.29945
  10        1PX         0.00000   0.00000   0.00000   0.00000   0.00000
  11        1PY         0.00000   0.00000   0.33188   0.51058   0.00000
  12        1PZ        -0.20078   0.02606   0.00000   0.00000  -0.18517
  13 4   C  1S          0.36695  -0.12188  -0.51534  -0.11375   0.39173
  14        1PX         0.00000   0.00000   0.00000   0.00000   0.00000
  15        1PY         0.18383   0.05163   0.01029  -0.08391  -0.13346
  16        1PZ         0.01217   0.23567   0.02648  -0.36476   0.00857
  17 5   C  1S          0.28155  -0.47045  -0.29259   0.34651  -0.24895
  18        1PX         0.00000   0.00000   0.00000   0.00000   0.00000
  19        1PY         0.06567  -0.08916   0.15248  -0.19149  -0.19443
  20        1PZ         0.11233  -0.03543  -0.12380  -0.02198   0.27960
  21 6   H  1S          0.06039  -0.14921  -0.11375   0.22232  -0.16820
  22 7   H  1S          0.07970  -0.02653  -0.20353  -0.09988   0.24583
  23 8   H  1S          0.07970  -0.02653   0.20353   0.09988   0.24583
  24 9   H  1S          0.06039  -0.14921   0.11375  -0.22232  -0.16820
                           6         7         8         9        10
                        (A1)--O   (B1)--O   (B2)--O   (A1)--O   (B2)--O
     Eigenvalues --    -0.68658  -0.60371  -0.56598  -0.50775  -0.50730
   1 1   C  1S          0.08235   0.00000   0.17913   0.04045  -0.01738
   2        1PX         0.00000   0.22513   0.00000   0.00000   0.00000
   3        1PY         0.19682   0.00000   0.07086  -0.16002  -0.07744
   4        1PZ        -0.21822   0.00000  -0.16601   0.34175   0.40865
   5 2   C  1S          0.09165   0.00000  -0.14445  -0.04230   0.08897
   6        1PX         0.00000   0.38517   0.00000   0.00000   0.00000
   7        1PY         0.36867   0.00000  -0.39435   0.10885  -0.26988
   8        1PZ         0.09419   0.00000   0.08009  -0.24995  -0.29740
   9 3   O  1S          0.18804   0.00000   0.00000   0.18658   0.00000
  10        1PX         0.00000   0.77583   0.00000   0.00000   0.00000
  11        1PY         0.00000   0.00000   0.45306   0.00000   0.00566
  12        1PZ         0.47710   0.00000   0.00000   0.60966   0.00000
  13 4   C  1S          0.09165   0.00000   0.14445  -0.04230  -0.08897
  14        1PX         0.00000   0.38517   0.00000   0.00000   0.00000
  15        1PY        -0.36867   0.00000  -0.39435  -0.10885  -0.26988
  16        1PZ         0.09419   0.00000  -0.08009  -0.24995   0.29740
  17 5   C  1S          0.08235   0.00000  -0.17913   0.04045   0.01738
  18        1PX         0.00000   0.22513   0.00000   0.00000   0.00000
  19        1PY        -0.19682   0.00000   0.07086   0.16002  -0.07744
  20        1PZ        -0.21822   0.00000   0.16601   0.34175  -0.40865
  21 6   H  1S          0.22030   0.00000  -0.23001  -0.27266   0.31075
  22 7   H  1S          0.27138   0.00000   0.31145  -0.04745   0.24683
  23 8   H  1S          0.27138   0.00000  -0.31145  -0.04745  -0.24683
  24 9   H  1S          0.22030   0.00000   0.23001  -0.27266  -0.31075
                          11        12        13        14        15
                        (A1)--O   (B1)--O   (A2)--O   (B1)--V   (A2)--V
     Eigenvalues --    -0.49860  -0.39473  -0.34779   0.03154   0.06415
   1 1   C  1S         -0.01197   0.00000   0.00000   0.00000   0.00000
   2        1PX         0.00000   0.58415   0.38412  -0.32876   0.59368
   3        1PY         0.53648   0.00000   0.00000   0.00000   0.00000
   4        1PZ         0.11362   0.00000   0.00000   0.00000   0.00000
   5 2   C  1S         -0.04037   0.00000   0.00000   0.00000   0.00000
   6        1PX         0.00000   0.17109   0.59368   0.56778  -0.38412
   7        1PY        -0.10949   0.00000   0.00000   0.00000   0.00000
   8        1PZ        -0.30572   0.00000   0.00000   0.00000   0.00000
   9 3   O  1S          0.10891   0.00000   0.00000   0.00000   0.00000
  10        1PX         0.00000  -0.50891   0.00000  -0.37296   0.00000
  11        1PY         0.00000   0.00000   0.00000   0.00000   0.00000
  12        1PZ         0.02822   0.00000   0.00000   0.00000   0.00000
  13 4   C  1S         -0.04037   0.00000   0.00000   0.00000   0.00000
  14        1PX         0.00000   0.17109  -0.59368   0.56778   0.38412
  15        1PY         0.10949   0.00000   0.00000   0.00000   0.00000
  16        1PZ        -0.30572   0.00000   0.00000   0.00000   0.00000
  17 5   C  1S         -0.01197   0.00000   0.00000   0.00000   0.00000
  18        1PX         0.00000   0.58415  -0.38412  -0.32876  -0.59368
  19        1PY        -0.53648   0.00000   0.00000   0.00000   0.00000
  20        1PZ         0.11362   0.00000   0.00000   0.00000   0.00000
  21 6   H  1S          0.17787   0.00000   0.00000   0.00000   0.00000
  22 7   H  1S         -0.23256   0.00000   0.00000   0.00000   0.00000
  23 8   H  1S         -0.23256   0.00000   0.00000   0.00000   0.00000
  24 9   H  1S          0.17787   0.00000   0.00000   0.00000   0.00000
                          16        17        18        19        20
                        (A1)--V   (B2)--V   (B2)--V   (A1)--V   (B2)--V
     Eigenvalues --     0.09836   0.14070   0.14951   0.15335   0.18077
   1 1   C  1S         -0.04984  -0.31956   0.18354   0.02749  -0.29909
   2        1PX         0.00000   0.00000   0.00000   0.00000   0.00000
   3        1PY        -0.01018   0.21862   0.37237   0.02332   0.27728
   4        1PZ         0.03881  -0.01509   0.08954   0.36753   0.31623
   5 2   C  1S          0.28538   0.25844  -0.25489  -0.28979  -0.20514
   6        1PX         0.00000   0.00000   0.00000   0.00000   0.00000
   7        1PY        -0.22765   0.24705   0.27766  -0.22978  -0.11435
   8        1PZ         0.32708   0.00447   0.07988   0.17813  -0.10567
   9 3   O  1S         -0.23831   0.00000   0.00000  -0.06202   0.00000
  10        1PX         0.00000   0.00000   0.00000   0.00000   0.00000
  11        1PY         0.00000  -0.00139   0.34927   0.00000   0.14002
  12        1PZ         0.48964   0.00000   0.00000   0.09142   0.00000
  13 4   C  1S          0.28538  -0.25844   0.25489  -0.28979   0.20514
  14        1PX         0.00000   0.00000   0.00000   0.00000   0.00000
  15        1PY         0.22765   0.24705   0.27766   0.22978  -0.11435
  16        1PZ         0.32708  -0.00447  -0.07988   0.17813   0.10567
  17 5   C  1S         -0.04984   0.31956  -0.18354   0.02749   0.29909
  18        1PX         0.00000   0.00000   0.00000   0.00000   0.00000
  19        1PY         0.01018   0.21862   0.37237  -0.02332   0.27728
  20        1PZ         0.03881   0.01509  -0.08954   0.36753  -0.31623
  21 6   H  1S          0.13042  -0.15274   0.32692   0.26152  -0.30064
  22 7   H  1S         -0.30063   0.44574   0.05763   0.34730  -0.25914
  23 8   H  1S         -0.30063  -0.44574  -0.05763   0.34730   0.25914
  24 9   H  1S          0.13042   0.15274  -0.32692   0.26152   0.30064
                          21        22        23        24
                        (A1)--V   (A1)--V   (B2)--V   (B2)--V
     Eigenvalues --     0.18272   0.18989   0.20723   0.22421
   1 1   C  1S         -0.32936   0.13095   0.17973  -0.06612
   2        1PX         0.00000   0.00000   0.00000   0.00000
   3        1PY        -0.31133   0.01403  -0.31880  -0.25315
   4        1PZ         0.06273   0.30018   0.39849  -0.15032
   5 2   C  1S          0.10732  -0.09102  -0.11581  -0.07387
   6        1PX         0.00000   0.00000   0.00000   0.00000
   7        1PY         0.10463   0.41280   0.24047   0.23552
   8        1PZ        -0.25340   0.27659   0.22191  -0.45230
   9 3   O  1S          0.06405   0.08515   0.00000   0.00000
  10        1PX         0.00000   0.00000   0.00000   0.00000
  11        1PY         0.00000   0.00000   0.06110   0.52777
  12        1PZ        -0.05035  -0.27198   0.00000   0.00000
  13 4   C  1S          0.10732  -0.09102   0.11581   0.07387
  14        1PX         0.00000   0.00000   0.00000   0.00000
  15        1PY        -0.10463  -0.41280   0.24047   0.23552
  16        1PZ        -0.25340   0.27659  -0.22191   0.45230
  17 5   C  1S         -0.32936   0.13095  -0.17973   0.06612
  18        1PX         0.00000   0.00000   0.00000   0.00000
  19        1PY         0.31133  -0.01403  -0.31880  -0.25315
  20        1PZ         0.06273   0.30018  -0.39849   0.15032
  21 6   H  1S          0.44478   0.08970  -0.25362  -0.05707
  22 7   H  1S         -0.05325  -0.29782   0.14353  -0.03023
  23 8   H  1S         -0.05325  -0.29782  -0.14353   0.03023
  24 9   H  1S          0.44478   0.08970   0.25362   0.05707
     Density Matrix:
                           1         2         3         4         5
   1 1   C  1S          1.21841
   2        1PX         0.00000   1.07893
   3        1PY         0.03897   0.00000   0.94633
   4        1PZ        -0.07010   0.00000  -0.04320   0.95947
   5 2   C  1S          0.30679   0.00000   0.16804   0.48532   1.24414
   6        1PX         0.00000   0.82940   0.00000   0.00000   0.00000
   7        1PY        -0.11697   0.00000   0.08083  -0.16517   0.10687
   8        1PZ        -0.44580   0.00000  -0.25755  -0.55077   0.00093
   9 3   O  1S         -0.00045   0.00000   0.03553   0.00493   0.10183
  10        1PX         0.00000  -0.24523   0.00000   0.00000   0.00000
  11        1PY         0.00248   0.00000  -0.03099  -0.04117   0.32834
  12        1PZ         0.08184   0.00000  -0.01802   0.06440  -0.26518
  13 4   C  1S         -0.02898   0.00000   0.00935  -0.02123   0.01498
  14        1PX         0.00000  -0.08276   0.00000   0.00000   0.00000
  15        1PY        -0.01848   0.00000  -0.03847  -0.01640   0.00798
  16        1PZ         0.01270   0.00000  -0.07684  -0.03042   0.04166
  17 5   C  1S          0.26613   0.00000  -0.46107  -0.03716  -0.02898
  18        1PX         0.00000   0.48875   0.00000   0.00000   0.00000
  19        1PY         0.46107   0.00000  -0.66258  -0.07177  -0.00935
  20        1PZ        -0.03716   0.00000   0.07177   0.11801  -0.02123
  21 6   H  1S         -0.04573   0.00000   0.06433  -0.00006   0.05309
  22 7   H  1S          0.04698   0.00000  -0.06502  -0.00293   0.05154
  23 8   H  1S         -0.05926   0.00000  -0.02921  -0.09001   0.60865
  24 9   H  1S          0.58196   0.00000   0.46545  -0.62397  -0.05709
                           6         7         8         9        10
   6        1PX         1.06017
   7        1PY         0.00000   0.89904
   8        1PZ         0.00000   0.09105   0.89838
   9 3   O  1S          0.00000  -0.22071   0.16334   1.85602
  10        1PX         0.42352   0.00000   0.00000   0.00000   1.72180
  11        1PY         0.00000  -0.43924   0.42411   0.00000   0.00000
  12        1PZ         0.00000   0.50003  -0.22793   0.29748   0.00000
  13 4   C  1S          0.00000  -0.00798   0.04166   0.10183   0.00000
  14        1PX        -0.34965   0.00000   0.00000   0.00000   0.42352
  15        1PY         0.00000   0.04295  -0.01986   0.22071   0.00000
  16        1PZ         0.00000   0.01986  -0.01608   0.16334   0.00000
  17 5   C  1S          0.00000   0.01848   0.01270  -0.00045   0.00000
  18        1PX        -0.08276   0.00000   0.00000   0.00000  -0.24523
  19        1PY         0.00000  -0.03847   0.07684  -0.03553   0.00000
  20        1PZ         0.00000   0.01640  -0.03042   0.00493   0.00000
  21 6   H  1S          0.00000  -0.01354  -0.05616   0.02235   0.00000
  22 7   H  1S          0.00000  -0.08655   0.05168  -0.04267   0.00000
  23 8   H  1S          0.00000   0.64605   0.36970  -0.04267   0.00000
  24 9   H  1S          0.00000   0.03841   0.05077   0.02235   0.00000
                          11        12        13        14        15
  11        1PY         1.15225
  12        1PZ         0.00000   1.35078
  13 4   C  1S         -0.32834  -0.26518   1.24414
  14        1PX         0.00000   0.00000   0.00000   1.06017
  15        1PY        -0.43924  -0.50003  -0.10687   0.00000   0.89904
  16        1PZ        -0.42411  -0.22793   0.00093   0.00000  -0.09105
  17 5   C  1S         -0.00248   0.08184   0.30679   0.00000   0.11697
  18        1PX         0.00000   0.00000   0.00000   0.82940   0.00000
  19        1PY        -0.03099   0.01802  -0.16804   0.00000   0.08083
  20        1PZ         0.04117   0.06440   0.48532   0.00000   0.16517
  21 6   H  1S         -0.05337  -0.08195  -0.05709   0.00000  -0.03841
  22 7   H  1S          0.04792   0.06354   0.60865   0.00000  -0.64605
  23 8   H  1S         -0.04792   0.06354   0.05154   0.00000   0.08655
  24 9   H  1S          0.05337  -0.08195   0.05309   0.00000   0.01354
                          16        17        18        19        20
  16        1PZ         0.89838
  17 5   C  1S         -0.44580   1.21841
  18        1PX         0.00000   0.00000   1.07893
  19        1PY         0.25755  -0.03897   0.00000   0.94633
  20        1PZ        -0.55077  -0.07010   0.00000   0.04320   0.95947
  21 6   H  1S          0.05077   0.58196   0.00000  -0.46545  -0.62397
  22 7   H  1S          0.36970  -0.05926   0.00000   0.02921  -0.09001
  23 8   H  1S          0.05168   0.04698   0.00000   0.06502  -0.00293
  24 9   H  1S         -0.05616  -0.04573   0.00000  -0.06433  -0.00006
                          21        22        23        24
  21 6   H  1S          0.84111
  22 7   H  1S          0.00958   0.81359
  23 8   H  1S         -0.01446  -0.02371   0.81359
  24 9   H  1S         -0.00623  -0.01446   0.00958   0.84111
    Full Mulliken population analysis:
                           1         2         3         4         5
   1 1   C  1S          1.21841
   2        1PX         0.00000   1.07893
   3        1PY         0.00000   0.00000   0.94633
   4        1PZ         0.00000   0.00000   0.00000   0.95947
   5 2   C  1S          0.00000   0.00000   0.00000   0.00000   1.24414
   6        1PX         0.00000   0.00000   0.00000   0.00000   0.00000
   7        1PY         0.00000   0.00000   0.00000   0.00000   0.00000
   8        1PZ         0.00000   0.00000   0.00000   0.00000   0.00000
   9 3   O  1S          0.00000   0.00000   0.00000   0.00000   0.00000
  10        1PX         0.00000   0.00000   0.00000   0.00000   0.00000
  11        1PY         0.00000   0.00000   0.00000   0.00000   0.00000
  12        1PZ         0.00000   0.00000   0.00000   0.00000   0.00000
  13 4   C  1S          0.00000   0.00000   0.00000   0.00000   0.00000
  14        1PX         0.00000   0.00000   0.00000   0.00000   0.00000
  15        1PY         0.00000   0.00000   0.00000   0.00000   0.00000
  16        1PZ         0.00000   0.00000   0.00000   0.00000   0.00000
[...]
 Vib (V=0)    2  0.109481D+01          0.039340          0.090584
 Electronic      0.100000D+01          0.000000          0.000000
 Translational   0.220531D+08          7.343470         16.908964
 Rotational      0.212452D+05          4.327261          9.963886
 
                                                          AM1-Reparam Input
                                                             IR Spectrum
 
    3333                                                        1       1 1   1        111  11                                       
    3333                                                        8       6 5   4        211  00     988 7  6       5                  
    9765                                                        1       0 5   6        195  75     054 8  9       0               6  
    1625                                                        6       5 6   4        803  17     691 1  6       7               1  
 
    XXXX                                                        X       X X   X        XXX  XX      XX X          X                  
     XXX                                                                  X            XX   XX      X             X                  
     XXX                                                                               XX    X      X             X                  
     XXX                                                                                X    X      X             X                  
     XXX                                                                                X    X      X             X                  
     XXX                                                                                X    X      X             X                  
     XXX                                                                                X           X             X                  
     XXX                                                                                            X             X                  
     X X                                                                                            X             X                  
     X X                                                                                                          X                  
     X X                                                                                                          X                  
     X                                                                                                            X                  
     X                                                                                                            X                  
     X                                                                                                            X                  
     X                                                                                                            X                  
     X                                                                                                            X                  
     X                                                                                                            X                  
     X                                                                                                            X                  
     X                                                                                                            X                  
                                                                                                                  X                  
 
 ***** Axes restored to original set *****
 -------------------------------------------------------------------
 Center     Atomic                   Forces (Hartrees/Bohr)
 Number     Number              X              Y              Z
 -------------------------------------------------------------------
      1        6           0.092176825    0.034220858    0.000000000
      2        6          -0.045492145   -0.064043559    0.000000000
      3        8          -0.097639275    0.000000000    0.000000000
      4        6          -0.045492145    0.064043559    0.000000000
      5        6           0.092176825   -0.034220858    0.000000000
      6        1           0.008855201    0.002989715    0.000000000
      7        1          -0.006720243    0.008545457    0.000000000
      8        1          -0.006720243   -0.008545457    0.000000000
      9        1           0.008855201   -0.002989715    0.000000000
 -------------------------------------------------------------------
 Cartesian Forces:  Max     0.097639275 RMS     0.039262649
 Z-matrix is all fixed cartesians, so copy forces.
 Force constants in Cartesian coordinates: 
                1             2             3             4             5 
      1  0.980706D+00
      2 -0.110258D+00  0.705630D+00
      3  0.000000D+00  0.000000D+00  0.991820D-01
      4 -0.487635D+00 -0.106891D+00  0.000000D+00  0.804346D+00
      5 -0.178284D+00 -0.102358D+00  0.000000D+00  0.193049D+00  0.835022D+00
      6  0.000000D+00  0.000000D+00 -0.482828D-01  0.000000D+00  0.000000D+00
      7 -0.115564D+00  0.583948D-01  0.000000D+00 -0.256490D+00  0.234095D+00
      8  0.958310D-01  0.240099D-01  0.000000D+00  0.424581D-01 -0.194274D+00
      9  0.000000D+00  0.000000D+00  0.943792D-02  0.000000D+00  0.000000D+00
     10 -0.110786D+00  0.394492D-01  0.000000D+00  0.199334D+00 -0.586704D-01
     11  0.693217D-01 -0.700117D-01  0.000000D+00  0.586704D-01 -0.197688D+00
     12  0.000000D+00  0.000000D+00  0.275287D-01  0.000000D+00  0.000000D+00
     13 -0.136591D-01 -0.335619D-02  0.000000D+00 -0.110786D+00 -0.693217D-01
     14  0.335619D-02 -0.376384D+00  0.000000D+00 -0.394492D-01 -0.700117D-01
     15  0.000000D+00  0.000000D+00 -0.763373D-01  0.000000D+00  0.000000D+00
     16  0.201844D-02 -0.395904D-02  0.000000D+00 -0.140008D-02  0.366375D-02
     17 -0.235119D-01 -0.248874D-01  0.000000D+00 -0.157232D-02 -0.272647D-02
     18  0.000000D+00  0.000000D+00  0.759240D-02  0.000000D+00  0.000000D+00
     19 -0.298601D-02  0.809632D-03  0.000000D+00 -0.499557D-02 -0.356181D-02
     20 -0.118605D-02  0.989761D-03  0.000000D+00 -0.692665D-02  0.737863D-03
     21  0.000000D+00  0.000000D+00 -0.289724D-04  0.000000D+00  0.000000D+00
     22 -0.165481D-01 -0.266389D-01  0.000000D+00 -0.108319D+00 -0.135474D+00
     23 -0.981381D-02 -0.506121D-02  0.000000D+00 -0.134382D+00 -0.277028D+00
     24  0.000000D+00  0.000000D+00  0.173767D-01  0.000000D+00  0.000000D+00
     25 -0.235546D+00  0.152449D+00  0.000000D+00 -0.340541D-01  0.145039D-01
     26  0.154545D+00 -0.151928D+00  0.000000D+00 -0.495781D-02  0.832694D-02
     27  0.000000D+00  0.000000D+00 -0.364682D-01  0.000000D+00  0.000000D+00
                6             7             8             9            10 
      6  0.639003D-01
      7  0.000000D+00  0.724389D+00
      8  0.000000D+00  0.000000D+00  0.453058D+00
      9 -0.948834D-02  0.000000D+00  0.000000D+00 -0.355119D-01
     10  0.000000D+00 -0.256490D+00 -0.424581D-01  0.000000D+00  0.804346D+00
     11  0.000000D+00 -0.234095D+00 -0.194274D+00  0.000000D+00 -0.193049D+00
     12 -0.164396D-01  0.000000D+00  0.000000D+00 -0.948834D-02  0.000000D+00
     13  0.000000D+00 -0.115564D+00 -0.958310D-01  0.000000D+00 -0.487635D+00
     14  0.000000D+00 -0.583948D-01  0.240099D-01  0.000000D+00  0.106891D+00
     15  0.275287D-01  0.000000D+00  0.000000D+00  0.943792D-02  0.000000D+00
     16  0.000000D+00 -0.351331D-02 -0.327530D-02  0.000000D+00 -0.340541D-01
     17  0.000000D+00  0.408907D-02 -0.162363D-02  0.000000D+00  0.495781D-02
     18  0.489990D-02  0.000000D+00  0.000000D+00  0.299945D-02  0.000000D+00
     19  0.000000D+00  0.133722D-01 -0.173137D-01  0.000000D+00 -0.108319D+00
     20  0.000000D+00  0.529909D-02 -0.546411D-01  0.000000D+00  0.134382D+00
     21  0.240237D-02  0.000000D+00  0.000000D+00  0.148071D-01  0.000000D+00
     22  0.000000D+00  0.133722D-01  0.173137D-01  0.000000D+00 -0.499557D-02
     23  0.000000D+00 -0.529909D-02 -0.546411D-01  0.000000D+00  0.692665D-02
     24 -0.327706D-01  0.000000D+00  0.000000D+00  0.148071D-01  0.000000D+00
     25  0.000000D+00 -0.351331D-02  0.327530D-02  0.000000D+00 -0.140008D-02
     26  0.000000D+00 -0.408907D-02 -0.162363D-02  0.000000D+00  0.157232D-02
     27  0.825003D-02  0.000000D+00  0.000000D+00  0.299945D-02  0.000000D+00
               11            12            13            14            15 
     11  0.835022D+00
     12  0.000000D+00  0.639003D-01
     13  0.178284D+00  0.000000D+00  0.980706D+00
     14 -0.102358D+00  0.000000D+00  0.110258D+00  0.705630D+00
     15  0.000000D+00 -0.482828D-01  0.000000D+00  0.000000D+00  0.991820D-01
     16 -0.145039D-01  0.000000D+00 -0.235546D+00 -0.152449D+00  0.000000D+00
     17  0.832694D-02  0.000000D+00 -0.154545D+00 -0.151928D+00  0.000000D+00
     18  0.000000D+00  0.825003D-02  0.000000D+00  0.000000D+00 -0.364682D-01
     19  0.135474D+00  0.000000D+00 -0.165481D-01  0.266389D-01  0.000000D+00
     20 -0.277028D+00  0.000000D+00  0.981381D-02 -0.506121D-02  0.000000D+00
     21  0.000000D+00 -0.327706D-01  0.000000D+00  0.000000D+00  0.173767D-01
     22  0.356181D-02  0.000000D+00 -0.298601D-02 -0.809632D-03  0.000000D+00
     23  0.737863D-03  0.000000D+00  0.118605D-02  0.989761D-03  0.000000D+00
     24  0.000000D+00  0.240237D-02  0.000000D+00  0.000000D+00 -0.289724D-04
     25 -0.366375D-02  0.000000D+00  0.201844D-02  0.395904D-02  0.000000D+00
     26 -0.272647D-02  0.000000D+00  0.235119D-01 -0.248874D-01  0.000000D+00
     27  0.000000D+00  0.489990D-02  0.000000D+00  0.000000D+00  0.759240D-02
               16            17            18            19            20 
     16  0.272156D+00
     17  0.170917D+00  0.172853D+00
     18  0.000000D+00  0.000000D+00  0.165521D-01
     19 -0.165559D-03  0.134091D-03  0.000000D+00  0.118533D+00
     20  0.873640D-04  0.122451D-03  0.000000D+00 -0.142300D+00  0.336057D+00
     21  0.000000D+00  0.000000D+00 -0.883414D-03  0.000000D+00  0.000000D+00
     22  0.685141D-04 -0.634942D-03  0.000000D+00  0.104015D-02  0.516033D-03
     23 -0.315188D-03 -0.167385D-03  0.000000D+00 -0.516033D-03 -0.100961D-02
     24  0.000000D+00  0.000000D+00 -0.208953D-02  0.000000D+00  0.000000D+00
     25  0.436050D-03  0.165777D-03  0.000000D+00  0.685141D-04  0.315188D-03
     26 -0.165777D-03  0.299096D-04  0.000000D+00  0.634942D-03 -0.167385D-03
     27  0.000000D+00  0.000000D+00 -0.852991D-03  0.000000D+00  0.000000D+00
               21            22            23            24            25 
     21  0.543031D-02
     22  0.000000D+00  0.118533D+00
     23  0.000000D+00  0.142300D+00  0.336057D+00
     24 -0.424416D-02  0.000000D+00  0.000000D+00  0.543031D-02
     25  0.000000D+00 -0.165559D-03 -0.873640D-04  0.000000D+00  0.272156D+00
     26  0.000000D+00 -0.134091D-03  0.122451D-03  0.000000D+00 -0.170917D+00
     27 -0.208953D-02  0.000000D+00  0.000000D+00 -0.883414D-03  0.000000D+00
               26            27 
     26  0.172853D+00
     27  0.000000D+00  0.165521D-01
 Leave Link  716 at Thu Feb 25 12:57:22 2016, MaxMem=    33554432 cpu:         0.0
 (Enter /opt/g09/g09/l103.exe)

 GradGradGradGradGradGradGradGradGradGradGradGradGradGradGradGradGradGrad
 Berny optimization.
 Search for a local minimum.
 Step number   1 out of a maximum of    2
 All quantities printed in internal units (Hartrees-Bohrs-Radians)
 Second derivative matrix not updated -- analytic derivatives used.
 ITU=  0
     Eigenvalues ---   -0.03446   0.00104   0.02610   0.04349   0.05127
     Eigenvalues ---    0.05442   0.05857   0.08899   0.14683   0.16927
     Eigenvalues ---    0.22524   0.22875   0.35300   0.48104   0.62131
     Eigenvalues ---    0.73286   0.99262   1.17085   1.33505   1.40265
     Eigenvalues ---    1.75775
 Eigenvalue     1 is  -3.45D-02 should be greater than     0.000000 Eigenvector:
                          Z3        Z7        Z8        Z2        Z4
   1                    0.58468  -0.53310  -0.53310  -0.18889  -0.18889
                          Z9        Z6        Z5        Z1        X7
   1                    0.07494   0.07494   0.05993   0.05993   0.00000
 Angle between quadratic step and forces=  36.69 degrees.
 ClnCor:  largest displacement from symmetrization is 1.76D-14 for atom     6.
 Linear search not attempted -- first point.
 ClnCor:  largest displacement from symmetrization is 4.44D-16 for atom     5.
 TrRot= -0.008408  0.000000  0.000000  0.000000  0.000000  0.000000
 Variable       Old X    -DE/DX   Delta X   Delta X   Delta X     New X
                                 (Linear)    (Quad)   (Total)
    X1        1.80559   0.09218   0.00000   0.07575   0.06734   1.87293
    Y1       -1.35297   0.03422   0.00000   0.03164   0.03164  -1.32133
    Z1        0.00000   0.00000   0.00000   0.00000   0.00000   0.00000
    X2       -0.65314  -0.04549   0.00000  -0.03009  -0.03850  -0.69164
    Y2       -2.06513  -0.06404   0.00000  -0.03172  -0.03172  -2.09685
    Z2        0.00000   0.00000   0.00000   0.00000   0.00000   0.00000
    X3       -2.18699  -0.09764   0.00000  -0.11520  -0.12361  -2.31060
    Y3        0.00000   0.00000   0.00000   0.00000   0.00000   0.00000
    Z3        0.00000   0.00000   0.00000   0.00000   0.00000   0.00000
    X4       -0.65314  -0.04549   0.00000  -0.03009  -0.03850  -0.69164
    Y4        2.06513   0.06404   0.00000   0.03172   0.03172   2.09685
    Z4        0.00000   0.00000   0.00000   0.00000   0.00000   0.00000
    X5        1.80559   0.09218   0.00000   0.07575   0.06734   1.87293
    Y5        1.35297  -0.03422   0.00000  -0.03164  -0.03164   1.32133
    Z5        0.00000   0.00000   0.00000   0.00000   0.00000   0.00000
    X6        3.42123   0.00886   0.00000   0.08142   0.07302   3.49425
    Y6        2.58776   0.00299   0.00000  -0.00741  -0.00741   2.58035
    Z6        0.00000   0.00000   0.00000   0.00000   0.00000   0.00000
    X7       -1.58795  -0.00672   0.00000  -0.03164  -0.04005  -1.62800
    Y7        3.86805   0.00855   0.00000   0.04878   0.04878   3.91683
    Z7        0.00000   0.00000   0.00000   0.00000   0.00000   0.00000
    X8       -1.58795  -0.00672   0.00000  -0.03164  -0.04005  -1.62800
    Y8       -3.86805  -0.00855   0.00000  -0.04878  -0.04878  -3.91683
    Z8        0.00000   0.00000   0.00000   0.00000   0.00000   0.00000
    X9        3.42123   0.00886   0.00000   0.08142   0.07302   3.49425
    Y9       -2.58776  -0.00299   0.00000   0.00741   0.00741  -2.58035
    Z9        0.00000   0.00000   0.00000   0.00000   0.00000   0.00000
         Item               Value     Threshold  Converged?
 Maximum Force            0.097639     0.000450     NO 
 RMS     Force            0.039263     0.000300     NO 
 Maximum Displacement     0.123608     0.001800     NO 
 RMS     Displacement     0.043062     0.001200     NO 
 Predicted change in Energy=-1.841810D-02
 GradGradGradGradGradGradGradGradGradGradGradGradGradGradGradGradGradGrad

 Leave Link  103 at Thu Feb 25 12:57:22 2016, MaxMem=    33554432 cpu:         0.0
 (Enter /opt/g09/g09/l9999.exe)
 1\1\GINC-LINUX-CBNE\Freq\RAM1-Full\STO-3G\C4H4O1\DUSTIN\25-Feb-2016\0\
 \#P AM1(Input,print) CIS(Singlets,NStates=15) pop(full) freq\\AM1-Repa
 ram Input\\0,1\C,0.955475,-0.715963,0.\C,-0.345627,-1.092818,0.\O,-1.1
 57305,0.,0.\C,-0.345627,1.092818,0.\C,0.955475,0.715963,0.\H,1.810438,
 1.369382,0.\H,-0.840307,2.046884,0.\H,-0.840307,-2.046884,0.\H,1.81043
 8,-1.369382,0.\\Version=ES64L-G09RevD.01\State=1-A1\HF=0.0108593\RMSD=
 4.829e-09\RMSF=3.926e-02\ZeroPoint=0.068949\Thermal=0.0733183\Dipole=0
 .2448324,0.,0.\DipoleDeriv=-0.1973298,0.2178237,0.,0.0521478,-0.353187
 1,0.,0.,0.,-0.2366206,0.27673,0.6218575,0.,-0.2395813,-0.9131317,0.,0.
 ,0.,-0.2677681,-0.7731158,0.,0.,0.,1.4692862,0.,0.,0.,-0.2391883,0.276
 73,-0.6218575,0.,0.2395813,-0.9131317,0.,0.,0.,-0.2677681,-0.1973298,-
 0.2178237,0.,-0.0521478,-0.3531871,0.,0.,0.,-0.2366206,0.1819919,0.142
 1241,0.,0.0716584,0.1789558,0.,0.,0.,0.2204089,0.1251662,-0.1310988,0.
 ,-0.0937004,0.352721,0.,0.,0.,0.4035748,0.1251662,0.1310988,0.,0.09370
 04,0.352721,0.,0.,0.,0.4035748,0.1819919,-0.1421241,0.,-0.0716584,0.17
 89558,0.,0.,0.,0.2204089\Polar=40.8701422,0.,80.7989632,0.,0.,16.57460
 39\PG=C02V [C2(O1),SGV(C4H4)]\NImag=1\\0.98070614,-0.11025793,0.705630
 09,0.,0.,0.09918202,-0.48763474,-0.10689101,0.,0.80434588,-0.17828369,
 -0.10235814,0.,0.19304937,0.83502239,0.,0.,-0.04828282,0.,0.,0.0639002
 8,-0.11556432,0.05839475,0.,-0.25648961,0.23409457,0.,0.72438943,0.095
 83097,0.02400988,0.,0.04245810,-0.19427447,0.,0.,0.45305806,0.,0.,0.00
 943792,0.,0.,-0.00948834,0.,0.,-0.03551192,-0.11078646,0.03944923,0.,0
 .19933403,-0.05867038,0.,-0.25648961,-0.04245810,0.,0.80434588,0.06932
 173,-0.07001165,0.,0.05867038,-0.19768838,0.,-0.23409457,-0.19427447,0
 .,-0.19304937,0.83502239,0.,0.,0.02752865,0.,0.,-0.01643963,0.,0.,-0.0
 0948834,0.,0.,0.06390028,-0.01365906,-0.00335619,0.,-0.11078646,-0.069
 32173,0.,-0.11556432,-0.09583097,0.,-0.48763474,0.17828369,0.,0.980706
 14,0.00335619,-0.37638364,0.,-0.03944923,-0.07001165,0.,-0.05839475,0.
 02400988,0.,0.10689101,-0.10235814,0.,0.11025793,0.70563009,0.,0.,-0.0
 7633732,0.,0.,0.02752865,0.,0.,0.00943792,0.,0.,-0.04828282,0.,0.,0.09
 918202,0.00201844,-0.00395904,0.,-0.00140008,0.00366375,0.,-0.00351331
 ,-0.00327530,0.,-0.03405412,-0.01450392,0.,-0.23554587,-0.15244926,0.,
 0.27215587,-0.02351191,-0.02488741,0.,-0.00157232,-0.00272647,0.,0.004
 08907,-0.00162363,0.,0.00495781,0.00832694,0.,-0.15454488,-0.15192762,
 0.,0.17091730,0.17285330,0.,0.,0.00759240,0.,0.,0.00489990,0.,0.,0.002
 99945,0.,0.,0.00825003,0.,0.,-0.03646818,0.,0.,0.01655209,-0.00298601,
 0.00080963,0.,-0.00499557,-0.00356181,0.,0.01337224,-0.01731366,0.,-0.
 10831884,0.13547430,0.,-0.01654813,0.02663887,0.,-0.00016556,0.0001340
 9,0.,0.11853305,-0.00118605,0.00098976,0.,-0.00692665,0.00073786,0.,0.
 00529909,-0.05464107,0.,0.13438155,-0.27702798,0.,0.00981381,-0.005061
 21,0.,0.00008736,0.00012245,0.,-0.14230035,0.33605719,0.,0.,-0.0000289
 7,0.,0.,0.00240237,0.,0.,0.01480710,0.,0.,-0.03277058,0.,0.,0.01737669
 ,0.,0.,-0.00088341,0.,0.,0.00543031,-0.01654813,-0.02663887,0.,-0.1083
 1884,-0.13547430,0.,0.01337224,0.01731366,0.,-0.00499557,0.00356181,0.
 ,-0.00298601,-0.00080963,0.,0.00006851,-0.00063494,0.,0.00104015,0.000
 51603,0.,0.11853305,-0.00981381,-0.00506121,0.,-0.13438155,-0.27702798
 ,0.,-0.00529909,-0.05464107,0.,0.00692665,0.00073786,0.,0.00118605,0.0
 0098976,0.,-0.00031519,-0.00016738,0.,-0.00051603,-0.00100961,0.,0.142
 30035,0.33605719,0.,0.,0.01737669,0.,0.,-0.03277058,0.,0.,0.01480710,0
 .,0.,0.00240237,0.,0.,-0.00002897,0.,0.,-0.00208953,0.,0.,-0.00424416,
 0.,0.,0.00543031,-0.23554587,0.15244926,0.,-0.03405412,0.01450392,0.,-
 0.00351331,0.00327530,0.,-0.00140008,-0.00366375,0.,0.00201844,0.00395
 904,0.,0.00043605,0.00016578,0.,0.00006851,0.00031519,0.,-0.00016556,-
 0.00008736,0.,0.27215587,0.15454488,-0.15192762,0.,-0.00495781,0.00832
 694,0.,-0.00408907,-0.00162363,0.,0.00157232,-0.00272647,0.,0.02351191
 ,-0.02488741,0.,-0.00016578,0.00002991,0.,0.00063494,-0.00016738,0.,-0
 .00013409,0.00012245,0.,-0.17091730,0.17285330,0.,0.,-0.03646818,0.,0.
 ,0.00825003,0.,0.,0.00299945,0.,0.,0.00489990,0.,0.,0.00759240,0.,0.,-
 0.00085299,0.,0.,-0.00208953,0.,0.,-0.00088341,0.,0.,0.01655209\\-0.09
 217682,-0.03422086,0.,0.04549215,0.06404356,0.,0.09763928,0.,0.,0.0454
 9215,-0.06404356,0.,-0.09217682,0.03422086,0.,-0.00885520,-0.00298972,
 0.,0.00672024,-0.00854546,0.,0.00672024,0.00854546,0.,-0.00885520,0.00
 298972,0.\\\@


 IF YOU GIVE A BOY AND A PIG EVERYTHING THEY WANT,
 YOU'LL GET A BAD BOY AND A GOOD PIG.
 Job cpu time:       0 days  0 hours  0 minutes  0.5 seconds.
 File lengths (MBytes):  RWF=      7 Int=      0 D2E=      0 Chk=      2 Scr=      1
 Normal termination of Gaussian 09 at Thu Feb 25 12:57:22 2016.
