 Entering Gaussian System, Link 0=g09
 Input=FuranAM1.com
 Output=FuranAM1.log
 Initial command:
 /opt/g09/g09/l1.exe "/opt/g09/scratch/Gau-11958.inp" -scrdir="/opt/g09/scratch/"
 Entering Link 1 = /opt/g09/g09/l1.exe PID=     11959.
  
 Copyright (c) 1988,1990,1992,1993,1995,1998,2003,2009,2013,
            Gaussian, Inc.  All Rights Reserved.
  
 This is part of the Gaussian(R) 09 program.  It is based on
 the Gaussian(R) 03 system (copyright 2003, Gaussian, Inc.),
 the Gaussian(R) 98 system (copyright 1998, Gaussian, Inc.),
 the Gaussian(R) 94 system (copyright 1995, Gaussian, Inc.),
 the Gaussian 92(TM) system (copyright 1992, Gaussian, Inc.),
 the Gaussian 90(TM) system (copyright 1990, Gaussian, Inc.),
 the Gaussian 88(TM) system (copyright 1988, Gaussian, Inc.),
 the Gaussian 86(TM) system (copyright 1986, Carnegie Mellon
 University), and the Gaussian 82(TM) system (copyright 1983,
 Carnegie Mellon University). Gaussian is a federally registered
 trademark of Gaussian, Inc.
  
 This software contains proprietary and confidential information,
 including trade secrets, belonging to Gaussian, Inc.
  
 This software is provided under written license and may be
 used, copied, transmitted, or stored only in accord with that
 written license.
  
 The following legend is applicable only to US Government
 contracts under FAR:
  
                    RESTRICTED RIGHTS LEGEND
  
 Use, reproduction and disclosure by the US Government is
 subject to restrictions as set forth in subparagraphs (a)
 and (c) of the Commercial Computer Software - Restricted
 Rights clause in FAR 52.227-19.
  
 Gaussian, Inc.
 340 Quinnipiac St., Bldg. 40, Wallingford CT 06492
  
  
 ---------------------------------------------------------------
 Warning -- This program may not be used in any manner that
 competes with the business of Gaussian, Inc. or will provide
 assistance to any competitor of Gaussian, Inc.  The licensee
 of this program is prohibited from giving any competitor of
 Gaussian, Inc. access to this program.  By using this program,
 the user acknowledges that Gaussian, Inc. is engaged in the
 business of creating and licensing software in the field of
 computational chemistry and represents and warrants to the
 licensee that it is not a competitor of Gaussian, Inc. and that
 it will not use this program in any manner prohibited above.
 ---------------------------------------------------------------
  

 Cite this work as:
 Gaussian 09, Revision D.01,
 M. J. Frisch, G. W. Trucks, H. B. Schlegel, G. E. Scuseria, 
 M. A. Robb, J. R. Cheeseman, G. Scalmani, V. Barone, B. Mennucci, 
 G. A. Petersson, H. Nakatsuji, M. Caricato, X. Li, H. P. Hratchian, 
 A. F. Izmaylov, J. Bloino, G. Zheng, J. L. Sonnenberg, M. Hada, 
 M. Ehara, K. Toyota, R. Fukuda, J. Hasegawa, M. Ishida, T. Nakajima, 
 Y. Honda, O. Kitao, H. Nakai, T. Vreven, J. A. Montgomery, Jr., 
 J. E. Peralta, F. Ogliaro, M. Bearpark, J. J. Heyd, E. Brothers, 
 K. N. Kudin, V. N. Staroverov, T. Keith, R. Kobayashi, J. Normand, 
 K. Raghavachari, A. Rendell, J. C. Burant, S. S. Iyengar, J. Tomasi, 
 M. Cossi, N. Rega, J. M. Millam, M. Klene, J. E. Knox, J. B. Cross, 
 V. Bakken, C. Adamo, J. Jaramillo, R. Gomperts, R. E. Stratmann, 
 O. Yazyev, A. J. Austin, R. Cammi, C. Pomelli, J. W. Ochterski, 
 R. L. Martin, K. Morokuma, V. G. Zakrzewski, G. A. Voth, 
 P. Salvador, J. J. Dannenberg, S. Dapprich, A. D. Daniels, 
 O. Farkas, J. B. Foresman, J. V. Ortiz, J. Cioslowski, 
 and D. J. Fox, Gaussian, Inc., Wallingford CT, 2013.
 
 ******************************************
 Gaussian 09:  ES64L-G09RevD.01 24-Apr-2013
                 7-Mar-2016 
 ******************************************
 -------------------
 #P AM1(Input,print)
 -------------------
 1/38=1/1;
 2/12=2,17=6,18=5,40=1/2;
 3/5=2,16=1,25=1,41=700000,135=100,136=1/1,2,3;
 4/35=1/1;
 5/5=2,35=1,38=5/2;
 6/7=2,8=2,9=2,10=2,28=1/1;
 99/5=1,9=1/99;
 Leave Link    1 at Mon Mar  7 13:15:55 2016, MaxMem=           0 cpu:         0.0
 (Enter /opt/g09/g09/l101.exe)
 -----------------
 AM1-Reparam Input
 -----------------
 Symbolic Z-matrix:
 Charge =  0 Multiplicity = 1
 6                     0.95548  -0.71596   0. 
 6                    -0.34563  -1.09282   0. 
 8                    -1.15731   0.        0. 
 6                    -0.34563   1.09282   0. 
 6                     0.95548   0.71596   0. 
 1                     1.81044   1.36938   0. 
 1                    -0.84031   2.04688   0. 
 1                    -0.84031  -2.04688   0. 
 1                     1.81044  -1.36938   0. 
 
 NAtoms=      9 NQM=        9 NQMF=       0 NMMI=      0 NMMIF=      0
                NMic=       0 NMicF=      0.
                    Isotopes and Nuclear Properties:
 (Nuclear quadrupole moments (NQMom) in fm**2, nuclear magnetic moments (NMagM)
  in nuclear magnetons)

  Atom         1           2           3           4           5           6           7           8           9
 IAtWgt=          12          12          16          12          12           1           1           1           1
 AtmWgt=  12.0000000  12.0000000  15.9949146  12.0000000  12.0000000   1.0078250   1.0078250   1.0078250   1.0078250
 NucSpn=           0           0           0           0           0           1           1           1           1
 AtZEff=   0.0000000   0.0000000   0.0000000   0.0000000   0.0000000   0.0000000   0.0000000   0.0000000   0.0000000
 NQMom=    0.0000000   0.0000000   0.0000000   0.0000000   0.0000000   0.0000000   0.0000000   0.0000000   0.0000000
 NMagM=    0.0000000   0.0000000   0.0000000   0.0000000   0.0000000   2.7928460   2.7928460   2.7928460   2.7928460
 AtZNuc=   6.0000000   6.0000000   8.0000000   6.0000000   6.0000000   1.0000000   1.0000000   1.0000000   1.0000000
 Leave Link  101 at Mon Mar  7 13:15:56 2016, MaxMem=    33554432 cpu:         0.0
 (Enter /opt/g09/g09/l202.exe)
                          Input orientation:                          
 ---------------------------------------------------------------------
 Center     Atomic      Atomic             Coordinates (Angstroms)
 Number     Number       Type             X           Y           Z
 ---------------------------------------------------------------------
      1          6           0        0.955475   -0.715963    0.000000
      2          6           0       -0.345627   -1.092818    0.000000
      3          8           0       -1.157305    0.000000    0.000000
      4          6           0       -0.345627    1.092818    0.000000
      5          6           0        0.955475    0.715963    0.000000
      6          1           0        1.810438    1.369382    0.000000
      7          1           0       -0.840307    2.046884    0.000000
      8          1           0       -0.840307   -2.046884    0.000000
      9          1           0        1.810438   -1.369382    0.000000
 ---------------------------------------------------------------------
                    Distance matrix (angstroms):
                    1          2          3          4          5
     1  C    0.000000
     2  C    1.354580   0.000000
     3  O    2.230794   1.361276   0.000000
     4  C    2.228128   2.185636   1.361276   0.000000
     5  C    1.431926   2.228128   2.230794   1.354580   0.000000
     6  H    2.253802   3.272773   3.268441   2.173730   1.076066
     7  H    3.295172   3.178433   2.071285   1.074686   2.235214
     8  H    2.235214   1.074686   2.071285   3.178433   3.295172
     9  H    1.076066   2.173730   3.268441   3.272773   2.253802
                    6          7          8          9
     6  H    0.000000
     7  H    2.735957   0.000000
     8  H    4.324040   4.093768   0.000000
     9  H    2.738764   4.324040   2.735957   0.000000
 Stoichiometry    C4H4O
 Framework group  C2V[C2(O),SGV(C4H4)]
 Deg. of freedom     8
 Full point group                 C2V     NOp   4
 Largest Abelian subgroup         C2V     NOp   4
 Largest concise Abelian subgroup C2      NOp   2
                         Standard orientation:                         
 ---------------------------------------------------------------------
 Center     Atomic      Atomic             Coordinates (Angstroms)
 Number     Number       Type             X           Y           Z
 ---------------------------------------------------------------------
      1          6           0        0.000000    0.715963   -0.955475
      2          6           0        0.000000    1.092818    0.345627
      3          8           0        0.000000    0.000000    1.157305
      4          6           0        0.000000   -1.092818    0.345627
      5          6           0        0.000000   -0.715963   -0.955475
      6          1           0        0.000000   -1.369382   -1.810438
      7          1           0        0.000000   -2.046884    0.840307
      8          1           0        0.000000    2.046884    0.840307
      9          1           0        0.000000    1.369382   -1.810438
 ---------------------------------------------------------------------
 Rotational constants (GHZ):      9.5015164      9.3284592      4.7070963
 Leave Link  202 at Mon Mar  7 13:15:56 2016, MaxMem=    33554432 cpu:         0.0
 (Enter /opt/g09/g09/l301.exe)

 Semi-emprical parameters in input format:
 Method=8 CoreType=1 PeptideFC=0.0114505045 RIJScale=0.5291772086
 ****
 H       
 PQN=1 NValence=1 F0ss=0.4721553327 ZetaOverlap=1.1880780000 U=-0.4188110042
 Beta=-0.2268825074 CoreKO=1.0589197790 KON=0,0,0,1.0589197790 KON=1,0,1,1.0589197790
 KON=0,1,1,1.0589197790 KON=2,1,1,1.0589197790 EISol=-0.4188110042 EHeat=0.0830298228
 Alpha=1.5252601686
 GCore=0.0085277107,1.4001425905,2.2676713595
 GCore=0.0003534810,1.4001425905,3.4015070392
 GCore=-0.0012733648,0.5600570362,3.9684248791
 ****
 C       
 PQN=2,2 NValence=4 F0ss=0.4494442496 F0sp=0.4215147623 F0pp=0.3768030831 F2pp=0.1898715146
 G1sp=0.2679025821
 ZetaOverlap=1.8086650000,1.6851160000
 U=-1.9120180828,-1.4557965594
 Beta=-0.5775444233,-0.2836784428 DDN=0,1,0.8236736000 DDN=1,1,0.7268015000
 CoreKO=1.1124284736 KON=0,0,0,1.1124284736 KON=1,0,1,0.8219701441 KON=0,1,1,1.1124284736
 KON=2,1,1,0.7783928119 EISol=-4.4398989268 EHeat=0.2723305520 Alpha=1.4014062429
 DipHyp=1.6472524267
 GCore=0.0007885612,1.4001425905,3.0235618126
 GCore=0.0031892455,1.4001425905,3.4959933458
 GCore=-0.0013931594,1.4001425905,3.8739385724
 GCore=-0.0000875022,1.4001425905,5.0077742521
 ****
 O       
 PQN=2,2 NValence=6 F0ss=0.5666745976 F0sp=0.5321302318 F0pp=0.4958708974 F2pp=0.2358081713
 G1sp=0.4343770262
 ZetaOverlap=3.1080320000,2.5240390000
 U=-3.5951865036,-2.8760896690
 Beta=-1.0757546603,-1.0757546603 DDN=0,1,0.4988896000 DDN=1,1,0.4852322000
 CoreKO=0.8822957477 KON=0,0,0,0.8822957477 KON=1,0,1,0.5019543089 KON=0,1,1,0.8822957477
 KON=2,1,1,0.5515584117 EISol=-11.6164441184 EHeat=0.0949133088 Alpha=2.3576807890
 DipHyp=0.9977217969
 GCore=0.0195117322,1.4001425905,1.6023328031
 GCore=0.0056550009,1.9601996266,2.7307884326
 ****
 
 Standard basis: VSTO-6G (5D, 7F)
 Ernie: Thresh=  0.10000D-02 Tol=  0.10000D-05 Strict=F.
  NNHCO=     0 NNPyr=     0 NCTC=     0               EPep=         0.000000000
    EC=        68.814780182  ECS=         1.835657201   EG=         0.356564984
   EHC=         0.000000000  EAt=       -31.051283843  AtH=         1.516354808
 EPDDG=         0.000000000  ECC=        71.007002367 EAtT=        32.567638650
 There are    10 symmetry adapted cartesian basis functions of A1  symmetry.
 There are     2 symmetry adapted cartesian basis functions of A2  symmetry.
 There are     3 symmetry adapted cartesian basis functions of B1  symmetry.
 There are     9 symmetry adapted cartesian basis functions of B2  symmetry.
 There are    10 symmetry adapted basis functions of A1  symmetry.
 There are     2 symmetry adapted basis functions of A2  symmetry.
 There are     3 symmetry adapted basis functions of B1  symmetry.
 There are     9 symmetry adapted basis functions of B2  symmetry.
    24 basis functions,   144 primitive gaussians,    24 cartesian basis functions
    13 alpha electrons       13 beta electrons
       nuclear repulsion energy       103.5746410173 Hartrees.
 IExCor=    0 DFT=F Ex=HF Corr=None ExCW=0 ScaHFX=  1.000000
 ScaDFX=  1.000000  1.000000  1.000000  1.000000 ScalE2=  1.000000  1.000000
 IRadAn=      0 IRanWt=     -1 IRanGd=            0 ICorTp=0 IEmpDi=  4
 Integral buffers will be    131072 words long.
 Regular integral format.
 Two-electron integral symmetry is turned off.
 Leave Link  301 at Mon Mar  7 13:15:56 2016, MaxMem=    33554432 cpu:         0.0
 (Enter /opt/g09/g09/l302.exe)
 Do NDO integrals.
 NPDir=0 NMtPBC=     1 NCelOv=     1 NCel=       1 NClECP=     1 NCelD=      1
         NCelK=      1 NCelE2=     1 NClLst=     1 CellRange=     0.0.
 One-electron integrals computed using PRISM.
 NBasis=    24 RedAO= T EigKep=  1.00D+00  NBF=    10     2     3     9
 NBsUse=    24 1.00D-06 EigRej= -1.00D+00 NBFU=    10     2     3     9
 Leave Link  302 at Mon Mar  7 13:15:56 2016, MaxMem=    33554432 cpu:         0.0
 (Enter /opt/g09/g09/l303.exe)
 DipDrv:  MaxL=1.
 Leave Link  303 at Mon Mar  7 13:15:56 2016, MaxMem=    33554432 cpu:         0.0
 (Enter /opt/g09/g09/l401.exe)
 Simple Huckel Guess.
 JPrj=0 DoOrth=F DoCkMO=F.
 Initial guess orbital symmetries:
       Occupied  (A1) (A1) (B2) (B2) (A1) (A1) (B1) (B2) (A1) (B2)
                 (A1) (B1) (A2)
       Virtual   (B1) (A2) (B2) (B2) (A1) (A1) (B2) (B2) (A1) (A1)
                 (B2)
 The electronic state of the initial guess is 1-A1.
 Leave Link  401 at Mon Mar  7 13:15:56 2016, MaxMem=    33554432 cpu:         0.0
 (Enter /opt/g09/g09/l502.exe)
 Closed shell SCF:
 Using DIIS extrapolation, IDIIS=  1040.
 Overlap will be assumed to be unity.
 Two-electron integral symmetry not used.
 Keep J ints in memory in canonical form, NReq=888094.
 IVT=       79487 IEndB=       79487 NGot=    33554432 MDV=    33473461
 LenX=    33473461 LenY=    33472444
 Requested convergence on RMS density matrix=1.00D-08 within 128 cycles.
 Requested convergence on MAX density matrix=1.00D-06.
 Requested convergence on             energy=1.00D-06.
 No special actions if energy rises.
 FoFCou: FMM=F IPFlag=           0 FMFlag=           0 FMFlg1=           0
         NFxFlg=           0 DoJE=F BraDBF=F KetDBF=F FulRan=T
         wScrn=  0.000000 ICntrl=     600 IOpCl=  2 I1Cent=           0 NGrid=           0
         NMat0=    1 NMatS0=     54 NMatT0=    0 NMatD0=    1 NMtDS0=    0 NMtDT0=    0
 Symmetry not used in FoFCou.

 Cycle   1  Pass 1  IDiag  1:
 E= 0.326102942378014    
 DIIS: error= 5.47D-02 at cycle   1 NSaved=   1.
 NSaved= 1 IEnMin= 1 EnMin= 0.326102942378014     IErMin= 1 ErrMin= 5.47D-02
 ErrMax= 5.47D-02  0.00D+00 EMaxC= 1.00D-01 BMatC= 1.12D-01 BMatP= 1.12D-01
 IDIUse=3 WtCom= 4.53D-01 WtEn= 5.47D-01
 Coeff-Com:  0.100D+01
 Coeff-En:   0.100D+01
 Coeff:      0.100D+01
 GapD=    2.000 DampG=2.000 DampE=0.500 DampFc=1.0000 IDamp=-1.
 RMSDP=1.95D-02 MaxDP=1.63D-01              OVMax= 0.00D+00

 Cycle   2  Pass 1  IDiag  1:
 E= 0.442804608304925E-01 Delta-E=       -0.281822481548 Rises=F Damp=F
 DIIS: error= 2.06D-02 at cycle   2 NSaved=   2.
 NSaved= 2 IEnMin= 2 EnMin= 0.442804608304925E-01 IErMin= 2 ErrMin= 2.06D-02
 ErrMax= 2.06D-02  0.00D+00 EMaxC= 1.00D-01 BMatC= 9.72D-03 BMatP= 1.12D-01
 IDIUse=3 WtCom= 7.94D-01 WtEn= 2.06D-01
 Coeff-Com: -0.358D+00 0.136D+01
 Coeff-En:   0.000D+00 0.100D+01
 Coeff:     -0.284D+00 0.128D+01
 RMSDP=8.24D-03 MaxDP=7.71D-02 DE=-2.82D-01 OVMax= 0.00D+00

 Cycle   3  Pass 1  IDiag  1:
 E= 0.131657761037758E-01 Delta-E=       -0.031114684727 Rises=F Damp=F
 DIIS: error= 3.59D-03 at cycle   3 NSaved=   3.
 NSaved= 3 IEnMin= 3 EnMin= 0.131657761037758E-01 IErMin= 3 ErrMin= 3.59D-03
 ErrMax= 3.59D-03  0.00D+00 EMaxC= 1.00D-01 BMatC= 3.91D-04 BMatP= 9.72D-03
 IDIUse=3 WtCom= 9.64D-01 WtEn= 3.59D-02
 Coeff-Com:  0.134D+00-0.603D+00 0.147D+01
 Coeff-En:   0.000D+00 0.000D+00 0.100D+01
 Coeff:      0.129D+00-0.581D+00 0.145D+01
 RMSDP=2.57D-03 MaxDP=3.13D-02 DE=-3.11D-02 OVMax= 0.00D+00

 Cycle   4  Pass 1  IDiag  3:
 E= 0.110474537564897E-01 Delta-E=       -0.002118322347 Rises=F Damp=F
 DIIS: error= 1.11D-03 at cycle   4 NSaved=   4.
 NSaved= 4 IEnMin= 4 EnMin= 0.110474537564897E-01 IErMin= 4 ErrMin= 1.11D-03
 ErrMax= 1.11D-03  0.00D+00 EMaxC= 1.00D-01 BMatC= 2.87D-05 BMatP= 3.91D-04
 IDIUse=3 WtCom= 9.89D-01 WtEn= 1.11D-02
 Coeff-Com:  0.152D-01-0.526D-01-0.201D+00 0.124D+01
 Coeff-En:   0.000D+00 0.000D+00 0.000D+00 0.100D+01
 Coeff:      0.150D-01-0.520D-01-0.199D+00 0.124D+01
 Fock symm off for IB=2 I1=    1 I=   11 J=    5 Cut=1.00D-07 Err=1.48D-03
 Fock matrix is not symmetric: symmetry in diagonalization turned off.
 Gap=     0.379 Goal=   None    Shift=    0.000
 RMSDP=8.32D-04 MaxDP=1.08D-02 DE=-2.12D-03 OVMax= 1.13D-02

 Cycle   5  Pass 1  IDiag  3:
 E= 0.108726987166818E-01 Delta-E=       -0.000174755040 Rises=F Damp=F
 DIIS: error= 1.98D-04 at cycle   5 NSaved=   5.
 NSaved= 5 IEnMin= 5 EnMin= 0.108726987166818E-01 IErMin= 5 ErrMin= 1.98D-04
 ErrMax= 1.98D-04  0.00D+00 EMaxC= 1.00D-01 BMatC= 1.65D-06 BMatP= 2.87D-05
 IDIUse=3 WtCom= 9.98D-01 WtEn= 1.98D-03
 Coeff-Com: -0.823D-02 0.327D-01 0.237D-01-0.476D+00 0.143D+01
 Coeff-En:   0.000D+00 0.000D+00 0.000D+00 0.000D+00 0.100D+01
 Coeff:     -0.821D-02 0.327D-01 0.237D-01-0.475D+00 0.143D+01
 Gap=     0.379 Goal=   None    Shift=    0.000
 RMSDP=2.28D-04 MaxDP=1.98D-03 DE=-1.75D-04 OVMax= 2.40D-03

 Cycle   6  Pass 1  IDiag  3:
 E= 0.108608350888062E-01 Delta-E=       -0.000011863628 Rises=F Damp=F
 DIIS: error= 8.82D-05 at cycle   6 NSaved=   6.
 NSaved= 6 IEnMin= 6 EnMin= 0.108608350888062E-01 IErMin= 6 ErrMin= 8.82D-05
 ErrMax= 8.82D-05  0.00D+00 EMaxC= 1.00D-01 BMatC= 1.58D-07 BMatP= 1.65D-06
 IDIUse=1 WtCom= 1.00D+00 WtEn= 0.00D+00
 Coeff-Com:  0.312D-02-0.122D-01 0.235D-03 0.154D+00-0.697D+00 0.155D+01
 Coeff:      0.312D-02-0.122D-01 0.235D-03 0.154D+00-0.697D+00 0.155D+01
 Gap=     0.379 Goal=   None    Shift=    0.000
 RMSDP=8.69D-05 MaxDP=7.35D-04 DE=-1.19D-05 OVMax= 1.16D-03

 Cycle   7  Pass 1  IDiag  3:
 E= 0.108594017857087E-01 Delta-E=       -0.000001433303 Rises=F Damp=F
 DIIS: error= 3.25D-05 at cycle   7 NSaved=   7.
 NSaved= 7 IEnMin= 7 EnMin= 0.108594017857087E-01 IErMin= 7 ErrMin= 3.25D-05
 ErrMax= 3.25D-05  0.00D+00 EMaxC= 1.00D-01 BMatC= 1.43D-08 BMatP= 1.58D-07
 IDIUse=1 WtCom= 1.00D+00 WtEn= 0.00D+00
 Coeff-Com: -0.432D-03 0.120D-02 0.923D-03-0.278D-01 0.156D+00-0.644D+00
 Coeff-Com:  0.151D+01
 Coeff:     -0.432D-03 0.120D-02 0.923D-03-0.278D-01 0.156D+00-0.644D+00
 Coeff:      0.151D+01
 Gap=     0.379 Goal=   None    Shift=    0.000
 RMSDP=3.19D-05 MaxDP=3.03D-04 DE=-1.43D-06 OVMax= 3.98D-04

 Cycle   8  Pass 1  IDiag  3:
 E= 0.108592579921805E-01 Delta-E=       -0.000000143794 Rises=F Damp=F
 DIIS: error= 6.67D-06 at cycle   8 NSaved=   8.
 NSaved= 8 IEnMin= 8 EnMin= 0.108592579921805E-01 IErMin= 8 ErrMin= 6.67D-06
 ErrMax= 6.67D-06  0.00D+00 EMaxC= 1.00D-01 BMatC= 6.97D-10 BMatP= 1.43D-08
 IDIUse=1 WtCom= 1.00D+00 WtEn= 0.00D+00
 Coeff-Com:  0.295D-04 0.230D-03-0.156D-02 0.102D-01-0.538D-01 0.270D+00
 Coeff-Com: -0.822D+00 0.160D+01
 Coeff:      0.295D-04 0.230D-03-0.156D-02 0.102D-01-0.538D-01 0.270D+00
 Coeff:     -0.822D+00 0.160D+01
 Gap=     0.379 Goal=   None    Shift=    0.000
 RMSDP=6.81D-06 MaxDP=6.62D-05 DE=-1.44D-07 OVMax= 8.67D-05

 Cycle   9  Pass 1  IDiag  3:
 E= 0.108592518402446E-01 Delta-E=       -0.000000006152 Rises=F Damp=F
 DIIS: error= 7.23D-07 at cycle   9 NSaved=   9.
 NSaved= 9 IEnMin= 9 EnMin= 0.108592518402446E-01 IErMin= 9 ErrMin= 7.23D-07
 ErrMax= 7.23D-07  0.00D+00 EMaxC= 1.00D-01 BMatC= 1.90D-11 BMatP= 6.97D-10
 IDIUse=1 WtCom= 1.00D+00 WtEn= 0.00D+00
 Coeff-Com:  0.210D-04-0.232D-03 0.671D-03-0.283D-02 0.154D-01-0.941D-01
 Coeff-Com:  0.316D+00-0.712D+00 0.148D+01
 Coeff:      0.210D-04-0.232D-03 0.671D-03-0.283D-02 0.154D-01-0.941D-01
 Coeff:      0.316D+00-0.712D+00 0.148D+01
 Gap=     0.379 Goal=   None    Shift=    0.000
 RMSDP=8.52D-07 MaxDP=7.06D-06 DE=-6.15D-09 OVMax= 1.20D-05

 Cycle  10  Pass 1  IDiag  3:
 E= 0.108592517168802E-01 Delta-E=       -0.000000000123 Rises=F Damp=F
 DIIS: error= 1.37D-07 at cycle  10 NSaved=  10.
 NSaved=10 IEnMin=10 EnMin= 0.108592517168802E-01 IErMin=10 ErrMin= 1.37D-07
 ErrMax= 1.37D-07  0.00D+00 EMaxC= 1.00D-01 BMatC= 7.70D-13 BMatP= 1.90D-11
 IDIUse=1 WtCom= 1.00D+00 WtEn= 0.00D+00
 Coeff-Com: -0.137D-04 0.112D-03-0.283D-03 0.964D-03-0.491D-02 0.323D-01
 Coeff-Com: -0.112D+00 0.258D+00-0.661D+00 0.149D+01
 Coeff:     -0.137D-04 0.112D-03-0.283D-03 0.964D-03-0.491D-02 0.323D-01
 Coeff:     -0.112D+00 0.258D+00-0.661D+00 0.149D+01
 Gap=     0.379 Goal=   None    Shift=    0.000
 RMSDP=1.46D-07 MaxDP=7.37D-07 DE=-1.23D-10 OVMax= 1.62D-06

 Cycle  11  Pass 1  IDiag  3:
 E= 0.108592517126027E-01 Delta-E=       -0.000000000004 Rises=F Damp=F
 DIIS: error= 2.07D-08 at cycle  11 NSaved=  11.
 NSaved=11 IEnMin=11 EnMin= 0.108592517126027E-01 IErMin=11 ErrMin= 2.07D-08
 ErrMax= 2.07D-08  0.00D+00 EMaxC= 1.00D-01 BMatC= 2.28D-14 BMatP= 7.70D-13
 IDIUse=1 WtCom= 1.00D+00 WtEn= 0.00D+00
 Coeff-Com:  0.371D-05-0.298D-04 0.733D-04-0.246D-03 0.119D-02-0.806D-02
 Coeff-Com:  0.279D-01-0.636D-01 0.172D+00-0.484D+00 0.135D+01
 Coeff:      0.371D-05-0.298D-04 0.733D-04-0.246D-03 0.119D-02-0.806D-02
 Coeff:      0.279D-01-0.636D-01 0.172D+00-0.484D+00 0.135D+01
 Gap=     0.379 Goal=   None    Shift=    0.000
 RMSDP=2.10D-08 MaxDP=1.23D-07 DE=-4.28D-12 OVMax= 1.29D-07

 Cycle  12  Pass 1  IDiag  3:
 E= 0.108592517124180E-01 Delta-E=        0.000000000000 Rises=F Damp=F
 DIIS: error= 4.04D-09 at cycle  12 NSaved=  12.
 NSaved=12 IEnMin=12 EnMin= 0.108592517124180E-01 IErMin=12 ErrMin= 4.04D-09
 ErrMax= 4.04D-09  0.00D+00 EMaxC= 1.00D-01 BMatC= 1.16D-15 BMatP= 2.28D-14
 IDIUse=1 WtCom= 1.00D+00 WtEn= 0.00D+00
 Coeff-Com: -0.303D-06 0.245D-05-0.534D-05 0.184D-04-0.698D-04 0.539D-03
 Coeff-Com: -0.184D-02 0.371D-02-0.120D-01 0.528D-01-0.374D+00 0.133D+01
 Coeff:     -0.303D-06 0.245D-05-0.534D-05 0.184D-04-0.698D-04 0.539D-03
 Coeff:     -0.184D-02 0.371D-02-0.120D-01 0.528D-01-0.374D+00 0.133D+01
 Gap=     0.379 Goal=   None    Shift=    0.000
 RMSDP=4.83D-09 MaxDP=3.24D-08 DE=-1.85D-13 OVMax= 3.40D-08

 Cycle  13  Pass 2  IDiag  1:
 SCF Done:  E(RAM1) =  0.108592517124E-01 A.U. after   13 cycles
            NFock= 12  Conv=0.48D-08     -V/T= 1.0007
 KE=-1.657292780822D+01 PE=-1.712317604639D+02 EE= 8.424090650651D+01
 Leave Link  502 at Mon Mar  7 13:15:56 2016, MaxMem=    33554432 cpu:         0.0
 (Enter /opt/g09/g09/l601.exe)
 Copying SCF densities to generalized density rwf, IOpCl= 0 IROHF=0.

 **********************************************************************

            Population analysis using the SCF density.

 **********************************************************************

 Orbital symmetries:
       Occupied  (A1) (A1) (B2) (B2) (A1) (A1) (B1) (B2) (A1) (B2)
                 (A1) (B1) (A2)
       Virtual   (B1) (A2) (A1) (B2) (B2) (A1) (B2) (A1) (A1) (B2)
                 (B2)
 The electronic state is 1-A1.
 Alpha  occ. eigenvalues --   -1.56990  -1.23725  -1.10195  -0.82517  -0.81473
 Alpha  occ. eigenvalues --   -0.68658  -0.60371  -0.56598  -0.50775  -0.50730
 Alpha  occ. eigenvalues --   -0.49860  -0.39473  -0.34779
 Alpha virt. eigenvalues --    0.03154   0.06415   0.09836   0.14070   0.14951
 Alpha virt. eigenvalues --    0.15335   0.18077   0.18272   0.18989   0.20723
 Alpha virt. eigenvalues --    0.22421
          Condensed to atoms (all electrons):
               1          2          3          4          5          6
     1  C    4.203139   0.000000   0.000000   0.000000   0.000000   0.000000
     2  C    0.000000   4.101729   0.000000   0.000000   0.000000   0.000000
     3  O    0.000000   0.000000   6.080849   0.000000   0.000000   0.000000
     4  C    0.000000   0.000000   0.000000   4.101729   0.000000   0.000000
     5  C    0.000000   0.000000   0.000000   0.000000   4.203139   0.000000
     6  H    0.000000   0.000000   0.000000   0.000000   0.000000   0.841114
     7  H    0.000000   0.000000   0.000000   0.000000   0.000000   0.000000
     8  H    0.000000   0.000000   0.000000   0.000000   0.000000   0.000000
     9  H    0.000000   0.000000   0.000000   0.000000   0.000000   0.000000
               7          8          9
     1  C    0.000000   0.000000   0.000000
     2  C    0.000000   0.000000   0.000000
     3  O    0.000000   0.000000   0.000000
     4  C    0.000000   0.000000   0.000000
     5  C    0.000000   0.000000   0.000000
     6  H    0.000000   0.000000   0.000000
     7  H    0.813593   0.000000   0.000000
     8  H    0.000000   0.813593   0.000000
     9  H    0.000000   0.000000   0.841114
 Mulliken charges:
               1
     1  C   -0.203139
     2  C   -0.101729
     3  O   -0.080849
     4  C   -0.101729
     5  C   -0.203139
     6  H    0.158886
     7  H    0.186407
     8  H    0.186407
     9  H    0.158886
 Sum of Mulliken charges =   0.00000
 Mulliken charges with hydrogens summed into heavy atoms:
               1
     1  C   -0.044253
     2  C    0.084678
     3  O   -0.080849
     4  C    0.084678
     5  C   -0.044253
 Charge=              0.0000 electrons
 Dipole moment (field-independent basis, Debye):
    X=              0.0000    Y=              0.0000    Z=             -0.3564  Tot=              0.3564
 N-N= 1.035746410173D+02 E-N=-1.712317603743D+02  KE=-1.657292780822D+01
 Symmetry A1   KE=-9.064385645522D+00
 Symmetry A2   KE=-6.266794402698D-01
 Symmetry B1   KE=-1.660398779463D+00
 Symmetry B2   KE=-5.221463942969D+00
 Leave Link  601 at Mon Mar  7 13:15:56 2016, MaxMem=    33554432 cpu:         0.0
 (Enter /opt/g09/g09/l9999.exe)
 1\1\GINC-LINUX-CBNE\SP\RAM1\ZDO\C4H4O1\DUSTIN\07-Mar-2016\0\\#P AM1(In
 put,print)\\AM1-Reparam Input\\0,1\C,0,0.955475,-0.715963,0.\C,0,-0.34
 5627,-1.092818,0.\O,0,-1.157305,0.,0.\C,0,-0.345627,1.092818,0.\C,0,0.
 955475,0.715963,0.\H,0,1.810438,1.369382,0.\H,0,-0.840307,2.046884,0.\
 H,0,-0.840307,-2.046884,0.\H,0,1.810438,-1.369382,0.\\Version=ES64L-G0
 9RevD.01\State=1-A1\HF=0.0108593\RMSD=4.829e-09\Dipole=0.1402149,0.,0.
 \PG=C02V [C2(O1),SGV(C4H4)]\\@


 AND HERE I AM, FOR ALL MY LORE,
 THE WRETCHED FOOL I WAS BEFORE.
 CALLED MASTER OF ARTS, AND DOCTOR TO BOOT,
 FOR TEN YEARS ALMOST I CONFUTE
 AND UP AND DOWN, WHEREVER IT GOES
 I DRAG MY STUDENTS BY THE NOSE --
 AND SEE THAT FOR ALL OUR SCIENCE AND ART
 WE CAN KNOW NOTHING.  IT BURNS MY HEART.

                                       -- FAUST
 Job cpu time:       0 days  0 hours  0 minutes  0.2 seconds.
 File lengths (MBytes):  RWF=      5 Int=      0 D2E=      0 Chk=      2 Scr=      1
 Normal termination of Gaussian 09 at Mon Mar  7 13:15:56 2016.
