 Entering Gaussian System, Link 0=g09
 Input=FuranDFT.com
 Output=FuranDFT.log
 Initial command:
 /opt/g09/g09/l1.exe "/opt/g09/scratch/Gau-16428.inp" -scrdir="/opt/g09/scratch/"
 Entering Link 1 = /opt/g09/g09/l1.exe PID=     16429.
  
 Copyright (c) 1988,1990,1992,1993,1995,1998,2003,2009,2013,
            Gaussian, Inc.  All Rights Reserved.
  
 This is part of the Gaussian(R) 09 program.  It is based on
 the Gaussian(R) 03 system (copyright 2003, Gaussian, Inc.),
 the Gaussian(R) 98 system (copyright 1998, Gaussian, Inc.),
 the Gaussian(R) 94 system (copyright 1995, Gaussian, Inc.),
 the Gaussian 92(TM) system (copyright 1992, Gaussian, Inc.),
 the Gaussian 90(TM) system (copyright 1990, Gaussian, Inc.),
 the Gaussian 88(TM) system (copyright 1988, Gaussian, Inc.),
 the Gaussian 86(TM) system (copyright 1986, Carnegie Mellon
 University), and the Gaussian 82(TM) system (copyright 1983,
 Carnegie Mellon University). Gaussian is a federally registered
 trademark of Gaussian, Inc.
  
 This software contains proprietary and confidential information,
 including trade secrets, belonging to Gaussian, Inc.
  
 This software is provided under written license and may be
 used, copied, transmitted, or stored only in accord with that
 written license.
  
 The following legend is applicable only to US Government
 contracts under FAR:
  
                    RESTRICTED RIGHTS LEGEND
  
 Use, reproduction and disclosure by the US Government is
 subject to restrictions as set forth in subparagraphs (a)
 and (c) of the Commercial Computer Software - Restricted
 Rights clause in FAR 52.227-19.
  
 Gaussian, Inc.
 340 Quinnipiac St., Bldg. 40, Wallingford CT 06492
  
  
 ---------------------------------------------------------------
 Warning -- This program may not be used in any manner that
 competes with the business of Gaussian, Inc. or will provide
 assistance to any competitor of Gaussian, Inc.  The licensee
 of this program is prohibited from giving any competitor of
 Gaussian, Inc. access to this program.  By using this program,
 the user acknowledges that Gaussian, Inc. is engaged in the
 business of creating and licensing software in the field of
 computational chemistry and represents and warrants to the
 licensee that it is not a competitor of Gaussian, Inc. and that
 it will not use this program in any manner prohibited above.
 ---------------------------------------------------------------
  

 Cite this work as:
 Gaussian 09, Revision D.01,
 M. J. Frisch, G. W. Trucks, H. B. Schlegel, G. E. Scuseria, 
 M. A. Robb, J. R. Cheeseman, G. Scalmani, V. Barone, B. Mennucci, 
 G. A. Petersson, H. Nakatsuji, M. Caricato, X. Li, H. P. Hratchian, 
 A. F. Izmaylov, J. Bloino, G. Zheng, J. L. Sonnenberg, M. Hada, 
 M. Ehara, K. Toyota, R. Fukuda, J. Hasegawa, M. Ishida, T. Nakajima, 
 Y. Honda, O. Kitao, H. Nakai, T. Vreven, J. A. Montgomery, Jr., 
 J. E. Peralta, F. Ogliaro, M. Bearpark, J. J. Heyd, E. Brothers, 
 K. N. Kudin, V. N. Staroverov, T. Keith, R. Kobayashi, J. Normand, 
 K. Raghavachari, A. Rendell, J. C. Burant, S. S. Iyengar, J. Tomasi, 
 M. Cossi, N. Rega, J. M. Millam, M. Klene, J. E. Knox, J. B. Cross, 
 V. Bakken, C. Adamo, J. Jaramillo, R. Gomperts, R. E. Stratmann, 
 O. Yazyev, A. J. Austin, R. Cammi, C. Pomelli, J. W. Ochterski, 
 R. L. Martin, K. Morokuma, V. G. Zakrzewski, G. A. Voth, 
 P. Salvador, J. J. Dannenberg, S. Dapprich, A. D. Daniels, 
 O. Farkas, J. B. Foresman, J. V. Ortiz, J. Cioslowski, 
 and D. J. Fox, Gaussian, Inc., Wallingford CT, 2013.
 
 ******************************************
 Gaussian 09:  ES64L-G09RevD.01 24-Apr-2013
                12-Mar-2016 
 ******************************************
 ------------------
 #P B3LYP/3-21G opt
 ------------------
 1/14=-1,18=20,19=15,26=3,38=1/1,3;
 2/9=110,12=2,17=6,18=5,40=1/2;
 3/5=5,11=2,16=1,25=1,30=1,71=1,74=-5/1,2,3;
 4//1;
 5/5=2,38=5/2;
 6/7=2,8=2,9=2,10=2,28=1/1;
 7//1,2,3,16;
 1/14=-1,18=20,19=15,26=3/3(2);
 2/9=110/2;
 99//99;
 2/9=110/2;
 3/5=5,11=2,16=1,25=1,30=1,71=1,74=-5/1,2,3;
 4/5=5,16=3,69=1/1;
 5/5=2,38=5/2;
 7//1,2,3,16;
 1/14=-1,18=20,19=15,26=3/3(-5);
 2/9=110/2;
 6/7=2,8=2,9=2,10=2,19=2,28=1/1;
 99/9=1/99;
 Leave Link    1 at Sat Mar 12 18:40:34 2016, MaxMem=           0 cpu:         0.0
 (Enter /opt/g09/g09/l101.exe)
 -------------------
 Title Card Required
 -------------------
 Symbolic Z-matrix:
 Charge =  0 Multiplicity = 1
 C                    -2.32076   1.72243   0.15223 
 H                    -3.25599   2.22436   0.01691 
 C                    -2.06018   0.47583  -0.28308 
 H                    -2.68797  -0.13079  -0.90178 
 C                    -0.71774   0.0958    0.28699 
 H                    -0.20501  -0.83369   0.15261 
 C                    -0.29823   1.14988   1.0111 
 H                     0.56711   1.14209   1.6404 
 O                    -1.17147   2.30077   0.83301 
 
 NAtoms=      9 NQM=        9 NQMF=       0 NMMI=      0 NMMIF=      0
                NMic=       0 NMicF=      0.
                    Isotopes and Nuclear Properties:
 (Nuclear quadrupole moments (NQMom) in fm**2, nuclear magnetic moments (NMagM)
  in nuclear magnetons)

  Atom         1           2           3           4           5           6           7           8           9
 IAtWgt=          12           1          12           1          12           1          12           1          16
 AtmWgt=  12.0000000   1.0078250  12.0000000   1.0078250  12.0000000   1.0078250  12.0000000   1.0078250  15.9949146
 NucSpn=           0           1           0           1           0           1           0           1           0
 AtZEff=   0.0000000   0.0000000   0.0000000   0.0000000   0.0000000   0.0000000   0.0000000   0.0000000   0.0000000
 NQMom=    0.0000000   0.0000000   0.0000000   0.0000000   0.0000000   0.0000000   0.0000000   0.0000000   0.0000000
 NMagM=    0.0000000   2.7928460   0.0000000   2.7928460   0.0000000   2.7928460   0.0000000   2.7928460   0.0000000
 AtZNuc=   6.0000000   1.0000000   6.0000000   1.0000000   6.0000000   1.0000000   6.0000000   1.0000000   8.0000000
 Leave Link  101 at Sat Mar 12 18:40:34 2016, MaxMem=    33554432 cpu:         0.0
 (Enter /opt/g09/g09/l103.exe)

 GradGradGradGradGradGradGradGradGradGradGradGradGradGradGradGradGradGrad
 Berny optimization.
 Initialization pass.
                           ----------------------------
                           !    Initial Parameters    !
                           ! (Angstroms and Degrees)  !
 --------------------------                            --------------------------
 ! Name  Definition              Value          Derivative Info.                !
 --------------------------------------------------------------------------------
 ! R1    R(1,2)                  1.07           estimate D2E/DX2                !
 ! R2    R(1,3)                  1.3459         estimate D2E/DX2                !
 ! R3    R(1,9)                  1.4556         estimate D2E/DX2                !
 ! R4    R(3,4)                  1.07           estimate D2E/DX2                !
 ! R5    R(3,5)                  1.5072         estimate D2E/DX2                !
 ! R6    R(5,6)                  1.07           estimate D2E/DX2                !
 ! R7    R(5,7)                  1.3459         estimate D2E/DX2                !
 ! R8    R(7,8)                  1.07           estimate D2E/DX2                !
 ! R9    R(7,9)                  1.4556         estimate D2E/DX2                !
 ! A1    A(2,1,3)              124.25           estimate D2E/DX2                !
 ! A2    A(2,1,9)              124.2553         estimate D2E/DX2                !
 ! A3    A(3,1,9)              111.4946         estimate D2E/DX2                !
 ! A4    A(1,3,4)              126.7656         estimate D2E/DX2                !
 ! A5    A(1,3,5)              106.4785         estimate D2E/DX2                !
 ! A6    A(4,3,5)              126.7518         estimate D2E/DX2                !
 ! A7    A(3,5,6)              126.7518         estimate D2E/DX2                !
 ! A8    A(3,5,7)              106.4785         estimate D2E/DX2                !
 ! A9    A(6,5,7)              126.7656         estimate D2E/DX2                !
 ! A10   A(5,7,8)              124.25           estimate D2E/DX2                !
 ! A11   A(5,7,9)              111.4946         estimate D2E/DX2                !
 ! A12   A(8,7,9)              124.2553         estimate D2E/DX2                !
 ! A13   A(1,9,7)              102.5181         estimate D2E/DX2                !
 ! D1    D(2,1,3,4)              7.2626         estimate D2E/DX2                !
 ! D2    D(2,1,3,5)           -172.0342         estimate D2E/DX2                !
 ! D3    D(9,1,3,4)           -172.8742         estimate D2E/DX2                !
 ! D4    D(9,1,3,5)              7.829          estimate D2E/DX2                !
 ! D5    D(2,1,9,7)            167.8153         estimate D2E/DX2                !
 ! D6    D(3,1,9,7)            -12.0478         estimate D2E/DX2                !
 ! D7    D(1,3,5,6)            179.2969         estimate D2E/DX2                !
 ! D8    D(1,3,5,7)              0.0            estimate D2E/DX2                !
 ! D9    D(4,3,5,6)              0.0            estimate D2E/DX2                !
 ! D10   D(4,3,5,7)           -179.2969         estimate D2E/DX2                !
 ! D11   D(3,5,7,8)            172.0342         estimate D2E/DX2                !
 ! D12   D(3,5,7,9)             -7.829          estimate D2E/DX2                !
 ! D13   D(6,5,7,8)             -7.2626         estimate D2E/DX2                !
 ! D14   D(6,5,7,9)            172.8742         estimate D2E/DX2                !
 ! D15   D(5,7,9,1)             12.0478         estimate D2E/DX2                !
 ! D16   D(8,7,9,1)           -167.8153         estimate D2E/DX2                !
 --------------------------------------------------------------------------------
 Trust Radius=3.00D-01 FncErr=1.00D-07 GrdErr=1.00D-06
 Number of steps in this run=     48 maximum allowed number of steps=    100.
 GradGradGradGradGradGradGradGradGradGradGradGradGradGradGradGradGradGrad

 Leave Link  103 at Sat Mar 12 18:40:34 2016, MaxMem=    33554432 cpu:         0.0
 (Enter /opt/g09/g09/l202.exe)
                          Input orientation:                          
 ---------------------------------------------------------------------
 Center     Atomic      Atomic             Coordinates (Angstroms)
 Number     Number       Type             X           Y           Z
 ---------------------------------------------------------------------
      1          6           0       -2.320756    1.722431    0.152225
      2          1           0       -3.255988    2.224358    0.016907
      3          6           0       -2.060185    0.475827   -0.283080
      4          1           0       -2.687970   -0.130795   -0.901785
      5          6           0       -0.717745    0.095800    0.286993
      6          1           0       -0.205012   -0.833687    0.152615
      7          6           0       -0.298230    1.149881    1.011100
      8          1           0        0.567112    1.142089    1.640404
      9          8           0       -1.171471    2.300766    0.833014
 ---------------------------------------------------------------------
                    Distance matrix (angstroms):
                    1          2          3          4          5
     1  C    0.000000
     2  H    1.070000   0.000000
     3  C    1.345886   2.139462   0.000000
     4  H    2.163384   2.591020   1.070000   0.000000
     5  C    2.287736   3.323610   1.507166   2.312212   0.000000
     6  H    3.318150   4.321865   2.312212   2.787633   1.070000
     7  C    2.270703   3.300190   2.287736   3.318150   1.345886
     8  H    3.300190   4.292219   3.323610   4.321865   2.139462
     9  O    1.455610   2.239884   2.316437   3.349893   2.316437
                    6          7          8          9
     6  H    0.000000
     7  C    2.163384   0.000000
     8  H    2.591020   1.070000   0.000000
     9  O    3.349893   1.455610   2.239884   0.000000
 Stoichiometry    C4H4O
 Framework group  CS[SG(O),X(C4H4)]
 Deg. of freedom    11
 Full point group                 CS      NOp   2
 Largest Abelian subgroup         CS      NOp   2
 Largest concise Abelian subgroup CS      NOp   2
                         Standard orientation:                         
 ---------------------------------------------------------------------
 Center     Atomic      Atomic             Coordinates (Angstroms)
 Number     Number       Type             X           Y           Z
 ---------------------------------------------------------------------
      1          6           0       -0.033604   -0.333018    1.135352
      2          1           0       -0.156173   -0.662024    2.146109
      3          6           0       -0.033604    0.957588    0.753583
      4          1           0       -0.044124    1.814845    1.393816
      5          6           0       -0.033604    0.957588   -0.753583
      6          1           0       -0.044124    1.814845   -1.393816
      7          6           0       -0.033604   -0.333018   -1.135352
      8          1           0       -0.156173   -0.662024   -2.146109
      9          8           0        0.150885   -1.225061    0.000000
 ---------------------------------------------------------------------
 Rotational constants (GHZ):      8.9307468      8.7092973      4.4295801
 Leave Link  202 at Sat Mar 12 18:40:34 2016, MaxMem=    33554432 cpu:         0.0
 (Enter /opt/g09/g09/l301.exe)
 Standard basis: 3-21G (6D, 7F)
 Ernie: Thresh=  0.10000D-02 Tol=  0.10000D-05 Strict=F.
 There are    29 symmetry adapted cartesian basis functions of A'  symmetry.
 There are    24 symmetry adapted cartesian basis functions of A"  symmetry.
 There are    29 symmetry adapted basis functions of A'  symmetry.
 There are    24 symmetry adapted basis functions of A"  symmetry.
    53 basis functions,    87 primitive gaussians,    53 cartesian basis functions
    18 alpha electrons       18 beta electrons
       nuclear repulsion energy       156.3653678103 Hartrees.
 IExCor=  402 DFT=T Ex+Corr=B3LYP ExCW=0 ScaHFX=  0.200000
 ScaDFX=  0.800000  0.720000  1.000000  0.810000 ScalE2=  1.000000  1.000000
 IRadAn=      0 IRanWt=     -1 IRanGd=            0 ICorTp=0 IEmpDi=  4
 NAtoms=    9 NActive=    9 NUniq=    5 SFac= 3.24D+00 NAtFMM=   60 NAOKFM=F Big=F
 Integral buffers will be    131072 words long.
 Raffenetti 2 integral format.
 Two-electron integral symmetry is turned on.
 Leave Link  301 at Sat Mar 12 18:40:34 2016, MaxMem=    33554432 cpu:         0.0
 (Enter /opt/g09/g09/l302.exe)
 NPDir=0 NMtPBC=     1 NCelOv=     1 NCel=       1 NClECP=     1 NCelD=      1
         NCelK=      1 NCelE2=     1 NClLst=     1 CellRange=     0.0.
 One-electron integrals computed using PRISM.
 One-electron integral symmetry used in STVInt
 NBasis=    53 RedAO= T EigKep=  2.95D-03  NBF=    29    24
 NBsUse=    53 1.00D-06 EigRej= -1.00D+00 NBFU=    29    24
 Precomputing XC quadrature grid using
 IXCGrd= 4 IRadAn=           0 IRanWt=          -1 IRanGd=           0 AccXCQ= 0.00D+00.
 Generated NRdTot=       0 NPtTot=           0 NUsed=           0 NTot=          32
 NSgBfM=    53    53    53    53    53 MxSgAt=     9 MxSgA2=     9.
 Leave Link  302 at Sat Mar 12 18:40:34 2016, MaxMem=    33554432 cpu:         0.1
 (Enter /opt/g09/g09/l303.exe)
 DipDrv:  MaxL=1.
 Leave Link  303 at Sat Mar 12 18:40:34 2016, MaxMem=    33554432 cpu:         0.0
 (Enter /opt/g09/g09/l401.exe)
 ExpMin= 1.83D-01 ExpMax= 3.22D+02 ExpMxC= 3.22D+02 IAcc=1 IRadAn=         1 AccDes= 0.00D+00
 Harris functional with IExCor=  402 and IRadAn=       1 diagonalized for initial guess.
 HarFok:  IExCor=  402 AccDes= 0.00D+00 IRadAn=         1 IDoV= 1 UseB2=F ITyADJ=14
 ICtDFT=  3500011 ScaDFX=  1.000000  1.000000  1.000000  1.000000
 FoFCou: FMM=F IPFlag=           0 FMFlag=      100000 FMFlg1=           0
         NFxFlg=           0 DoJE=T BraDBF=F KetDBF=T FulRan=T
         wScrn=  0.000000 ICntrl=     500 IOpCl=  0 I1Cent=   200000004 NGrid=           0
         NMat0=    1 NMatS0=      1 NMatT0=    0 NMatD0=    1 NMtDS0=    0 NMtDT0=    0
 Petite list used in FoFCou.
 Harris En= -228.727406617134    
 JPrj=0 DoOrth=F DoCkMO=F.
 Initial guess orbital symmetries:
       Occupied  (A') (A") (A') (A") (A') (A') (A') (A") (A') (A")
                 (A') (A") (A") (A') (A') (A') (A') (A")
       Virtual   (A') (A") (A') (A") (A') (A") (A") (A') (A") (A')
                 (A") (A") (A') (A') (A') (A") (A') (A') (A") (A")
                 (A') (A") (A") (A') (A") (A') (A") (A') (A') (A")
                 (A') (A') (A") (A") (A')
 The electronic state of the initial guess is 1-A'.
 Leave Link  401 at Sat Mar 12 18:40:34 2016, MaxMem=    33554432 cpu:         0.1
 (Enter /opt/g09/g09/l502.exe)
 Closed shell SCF:
 Using DIIS extrapolation, IDIIS=  1040.
 Integral symmetry usage will be decided dynamically.
 Keep R1 ints in memory in symmetry-blocked form, NReq=1928962.
 IVT=       27787 IEndB=       27787 NGot=    33554432 MDV=    33010323
 LenX=    33010323 LenY=    33007073
 Requested convergence on RMS density matrix=1.00D-08 within 128 cycles.
 Requested convergence on MAX density matrix=1.00D-06.
 Requested convergence on             energy=1.00D-06.
 No special actions if energy rises.
 FoFCou: FMM=F IPFlag=           0 FMFlag=           0 FMFlg1=           0
         NFxFlg=           0 DoJE=F BraDBF=F KetDBF=F FulRan=T
         wScrn=  0.000000 ICntrl=     600 IOpCl=  0 I1Cent=           0 NGrid=           0
         NMat0=    1 NMatS0=   1431 NMatT0=    0 NMatD0=    1 NMtDS0=    0 NMtDT0=    0
 Petite list used in FoFCou.
 Integral accuracy reduced to 1.0D-05 until final iterations.

 Cycle   1  Pass 0  IDiag  1:
 E= -228.663099853166    
 DIIS: error= 3.91D-02 at cycle   1 NSaved=   1.
 NSaved= 1 IEnMin= 1 EnMin= -228.663099853166     IErMin= 1 ErrMin= 3.91D-02
 ErrMax= 3.91D-02  0.00D+00 EMaxC= 1.00D-01 BMatC= 6.90D-02 BMatP= 6.90D-02
 IDIUse=3 WtCom= 6.09D-01 WtEn= 3.91D-01
 Coeff-Com:  0.100D+01
 Coeff-En:   0.100D+01
 Coeff:      0.100D+01
 Gap=     0.223 Goal=   None    Shift=    0.000
 GapD=    0.223 DampG=1.000 DampE=0.500 DampFc=0.5000 IDamp=-1.
 Damping current iteration by 5.00D-01
 RMSDP=1.13D-02 MaxDP=9.82D-02              OVMax= 1.97D-01

 Cycle   2  Pass 0  IDiag  1:
 E= -228.689006131042     Delta-E=       -0.025906277876 Rises=F Damp=T
 DIIS: error= 1.69D-02 at cycle   2 NSaved=   2.
 NSaved= 2 IEnMin= 2 EnMin= -228.689006131042     IErMin= 2 ErrMin= 1.69D-02
 ErrMax= 1.69D-02  0.00D+00 EMaxC= 1.00D-01 BMatC= 9.81D-03 BMatP= 6.90D-02
 IDIUse=3 WtCom= 8.31D-01 WtEn= 1.69D-01
 Coeff-Com:  0.139D+00 0.861D+00
 Coeff-En:   0.238D+00 0.762D+00
 Coeff:      0.156D+00 0.844D+00
 Gap=     0.236 Goal=   None    Shift=    0.000
 RMSDP=4.42D-03 MaxDP=3.59D-02 DE=-2.59D-02 OVMax= 1.75D-01

 Cycle   3  Pass 0  IDiag  1:
 E= -228.723705380969     Delta-E=       -0.034699249926 Rises=F Damp=F
 DIIS: error= 2.06D-02 at cycle   3 NSaved=   3.
 NSaved= 3 IEnMin= 3 EnMin= -228.723705380969     IErMin= 2 ErrMin= 1.69D-02
 ErrMax= 2.06D-02  0.00D+00 EMaxC= 1.00D-01 BMatC= 1.31D-02 BMatP= 9.81D-03
 IDIUse=2 WtCom= 0.00D+00 WtEn= 1.00D+00
 Coeff-En:   0.000D+00 0.000D+00 0.100D+01
 Coeff:      0.000D+00 0.000D+00 0.100D+01
 Gap=     0.230 Goal=   None    Shift=    0.000
 RMSDP=6.16D-03 MaxDP=5.05D-02 DE=-3.47D-02 OVMax= 1.42D-01

 Cycle   4  Pass 0  IDiag  1:
 E= -228.683591343303     Delta-E=        0.040114037666 Rises=F Damp=F
 DIIS: error= 4.77D-02 at cycle   4 NSaved=   4.
 NSaved= 4 IEnMin= 3 EnMin= -228.723705380969     IErMin= 2 ErrMin= 1.69D-02
 ErrMax= 4.77D-02  0.00D+00 EMaxC= 1.00D-01 BMatC= 5.75D-02 BMatP= 9.81D-03
 IDIUse=2 WtCom= 0.00D+00 WtEn= 1.00D+00
 Coeff-En:   0.000D+00 0.000D+00 0.762D+00 0.238D+00
 Coeff:      0.000D+00 0.000D+00 0.762D+00 0.238D+00
 Gap=     0.240 Goal=   None    Shift=    0.000
 RMSDP=3.10D-03 MaxDP=2.50D-02 DE= 4.01D-02 OVMax= 7.71D-02

 Cycle   5  Pass 0  IDiag  1:
 E= -228.732491260042     Delta-E=       -0.048899916739 Rises=F Damp=F
 DIIS: error= 1.13D-02 at cycle   5 NSaved=   5.
 NSaved= 5 IEnMin= 5 EnMin= -228.732491260042     IErMin= 5 ErrMin= 1.13D-02
 ErrMax= 1.13D-02  0.00D+00 EMaxC= 1.00D-01 BMatC= 3.54D-03 BMatP= 9.81D-03
 IDIUse=3 WtCom= 8.87D-01 WtEn= 1.13D-01
 Coeff-Com: -0.943D-02 0.318D-01 0.242D+00-0.109D+00 0.845D+00
 Coeff-En:   0.000D+00 0.000D+00 0.260D+00 0.000D+00 0.740D+00
 Coeff:     -0.836D-02 0.282D-01 0.244D+00-0.967D-01 0.833D+00
 Gap=     0.245 Goal=   None    Shift=    0.000
 RMSDP=1.12D-03 MaxDP=9.08D-03 DE=-4.89D-02 OVMax= 2.63D-02

 Cycle   6  Pass 0  IDiag  1:
 E= -228.735707845299     Delta-E=       -0.003216585257 Rises=F Damp=F
 DIIS: error= 7.11D-04 at cycle   6 NSaved=   6.
 NSaved= 6 IEnMin= 6 EnMin= -228.735707845299     IErMin= 6 ErrMin= 7.11D-04
 ErrMax= 7.11D-04  0.00D+00 EMaxC= 1.00D-01 BMatC= 1.36D-05 BMatP= 3.54D-03
 IDIUse=3 WtCom= 9.93D-01 WtEn= 7.11D-03
 Coeff-Com: -0.373D-02 0.650D-02 0.256D-01-0.206D-01 0.169D+00 0.823D+00
 Coeff-En:   0.000D+00 0.000D+00 0.000D+00 0.000D+00 0.000D+00 0.100D+01
 Coeff:     -0.370D-02 0.645D-02 0.254D-01-0.205D-01 0.168D+00 0.825D+00
 Gap=     0.245 Goal=   None    Shift=    0.000
 RMSDP=7.31D-05 MaxDP=5.46D-04 DE=-3.22D-03 OVMax= 1.62D-03

 Cycle   7  Pass 0  IDiag  1:
 E= -228.735721202712     Delta-E=       -0.000013357413 Rises=F Damp=F
 DIIS: error= 3.03D-05 at cycle   7 NSaved=   7.
 NSaved= 7 IEnMin= 7 EnMin= -228.735721202712     IErMin= 7 ErrMin= 3.03D-05
 ErrMax= 3.03D-05  0.00D+00 EMaxC= 1.00D-01 BMatC= 2.20D-08 BMatP= 1.36D-05
 IDIUse=1 WtCom= 1.00D+00 WtEn= 0.00D+00
 Coeff-Com:  0.169D-03-0.388D-03-0.156D-02 0.259D-03-0.537D-02 0.469D-02
 Coeff-Com:  0.100D+01
 Coeff:      0.169D-03-0.388D-03-0.156D-02 0.259D-03-0.537D-02 0.469D-02
 Coeff:      0.100D+01
 Gap=     0.245 Goal=   None    Shift=    0.000
 RMSDP=3.22D-06 MaxDP=2.64D-05 DE=-1.34D-05 OVMax= 8.11D-05

 Initial convergence to 1.0D-05 achieved.  Increase integral accuracy.
 Cycle   8  Pass 1  IDiag  1:
 E= -228.735754917559     Delta-E=       -0.000033714847 Rises=F Damp=F
 DIIS: error= 1.43D-05 at cycle   1 NSaved=   1.
 NSaved= 1 IEnMin= 1 EnMin= -228.735754917559     IErMin= 1 ErrMin= 1.43D-05
 ErrMax= 1.43D-05  0.00D+00 EMaxC= 1.00D-01 BMatC= 9.45D-09 BMatP= 9.45D-09
 IDIUse=1 WtCom= 1.00D+00 WtEn= 0.00D+00
 Coeff-Com:  0.100D+01
 Coeff:      0.100D+01
 Gap=     0.245 Goal=   None    Shift=    0.000
 RMSDP=3.22D-06 MaxDP=2.64D-05 DE=-3.37D-05 OVMax= 2.19D-05

 Cycle   9  Pass 1  IDiag  1:
 E= -228.735754930496     Delta-E=       -0.000000012937 Rises=F Damp=F
 DIIS: error= 3.35D-06 at cycle   2 NSaved=   2.
 NSaved= 2 IEnMin= 2 EnMin= -228.735754930496     IErMin= 2 ErrMin= 3.35D-06
 ErrMax= 3.35D-06  0.00D+00 EMaxC= 1.00D-01 BMatC= 4.84D-10 BMatP= 9.45D-09
 IDIUse=1 WtCom= 1.00D+00 WtEn= 0.00D+00
 Coeff-Com:  0.471D-01 0.953D+00
 Coeff:      0.471D-01 0.953D+00
 Gap=     0.245 Goal=   None    Shift=    0.000
 RMSDP=8.34D-07 MaxDP=7.70D-06 DE=-1.29D-08 OVMax= 1.92D-05

 Cycle  10  Pass 1  IDiag  1:
 E= -228.735754930037     Delta-E=        0.000000000459 Rises=F Damp=F
 DIIS: error= 5.17D-06 at cycle   3 NSaved=   3.
 NSaved= 3 IEnMin= 2 EnMin= -228.735754930496     IErMin= 2 ErrMin= 3.35D-06
 ErrMax= 5.17D-06  0.00D+00 EMaxC= 1.00D-01 BMatC= 1.02D-09 BMatP= 4.84D-10
 IDIUse=1 WtCom= 1.00D+00 WtEn= 0.00D+00
 Coeff-Com: -0.263D-01 0.605D+00 0.422D+00
 Coeff:     -0.263D-01 0.605D+00 0.422D+00
 Gap=     0.245 Goal=   None    Shift=    0.000
 RMSDP=5.25D-07 MaxDP=5.10D-06 DE= 4.59D-10 OVMax= 1.21D-05

 Cycle  11  Pass 1  IDiag  1:
 E= -228.735754930984     Delta-E=       -0.000000000947 Rises=F Damp=F
 DIIS: error= 3.61D-07 at cycle   4 NSaved=   4.
 NSaved= 4 IEnMin= 4 EnMin= -228.735754930984     IErMin= 4 ErrMin= 3.61D-07
 ErrMax= 3.61D-07  0.00D+00 EMaxC= 1.00D-01 BMatC= 5.99D-12 BMatP= 4.84D-10
 IDIUse=1 WtCom= 1.00D+00 WtEn= 0.00D+00
 Coeff-Com: -0.105D-01 0.193D+00 0.156D+00 0.661D+00
 Coeff:     -0.105D-01 0.193D+00 0.156D+00 0.661D+00
 Gap=     0.245 Goal=   None    Shift=    0.000
 RMSDP=7.30D-08 MaxDP=6.32D-07 DE=-9.47D-10 OVMax= 1.19D-06

 Cycle  12  Pass 1  IDiag  1:
 E= -228.735754930990     Delta-E=       -0.000000000006 Rises=F Damp=F
 DIIS: error= 2.19D-07 at cycle   5 NSaved=   5.
 NSaved= 5 IEnMin= 5 EnMin= -228.735754930990     IErMin= 5 ErrMin= 2.19D-07
 ErrMax= 2.19D-07  0.00D+00 EMaxC= 1.00D-01 BMatC= 1.58D-12 BMatP= 5.99D-12
 IDIUse=1 WtCom= 1.00D+00 WtEn= 0.00D+00
 Coeff-Com: -0.486D-02 0.777D-01 0.680D-01 0.381D+00 0.478D+00
 Coeff:     -0.486D-02 0.777D-01 0.680D-01 0.381D+00 0.478D+00
 Gap=     0.245 Goal=   None    Shift=    0.000
 RMSDP=3.07D-08 MaxDP=3.21D-07 DE=-5.68D-12 OVMax= 6.87D-07

 Cycle  13  Pass 1  IDiag  1:
 E= -228.735754930991     Delta-E=       -0.000000000001 Rises=F Damp=F
 DIIS: error= 9.98D-08 at cycle   6 NSaved=   6.
 NSaved= 6 IEnMin= 6 EnMin= -228.735754930991     IErMin= 6 ErrMin= 9.98D-08
 ErrMax= 9.98D-08  0.00D+00 EMaxC= 1.00D-01 BMatC= 3.31D-13 BMatP= 1.58D-12
 IDIUse=1 WtCom= 1.00D+00 WtEn= 0.00D+00
 Coeff-Com: -0.480D-03 0.862D-03 0.509D-02 0.109D+00 0.321D+00 0.565D+00
 Coeff:     -0.480D-03 0.862D-03 0.509D-02 0.109D+00 0.321D+00 0.565D+00
 Gap=     0.245 Goal=   None    Shift=    0.000
 RMSDP=1.17D-08 MaxDP=1.04D-07 DE=-1.36D-12 OVMax= 2.56D-07

 Cycle  14  Pass 1  IDiag  1:
 E= -228.735754930993     Delta-E=       -0.000000000001 Rises=F Damp=F
 DIIS: error= 1.63D-08 at cycle   7 NSaved=   7.
 NSaved= 7 IEnMin= 7 EnMin= -228.735754930993     IErMin= 7 ErrMin= 1.63D-08
 ErrMax= 1.63D-08  0.00D+00 EMaxC= 1.00D-01 BMatC= 7.19D-15 BMatP= 3.31D-13
 IDIUse=1 WtCom= 1.00D+00 WtEn= 0.00D+00
 Coeff-Com:  0.156D-03-0.371D-02-0.276D-02 0.131D-02 0.339D-01 0.176D+00
 Coeff-Com:  0.795D+00
 Coeff:      0.156D-03-0.371D-02-0.276D-02 0.131D-02 0.339D-01 0.176D+00
 Coeff:      0.795D+00
 Gap=     0.245 Goal=   None    Shift=    0.000
 RMSDP=2.45D-09 MaxDP=1.63D-08 DE=-1.36D-12 OVMax= 4.42D-08

 SCF Done:  E(RB3LYP) =  -228.735754931     A.U. after   14 cycles
            NFock= 14  Conv=0.25D-08     -V/T= 2.0099
 KE= 2.265026552942D+02 PE=-8.452207237288D+02 EE= 2.336169456933D+02
 Leave Link  502 at Sat Mar 12 18:40:36 2016, MaxMem=    33554432 cpu:         1.6
 (Enter /opt/g09/g09/l601.exe)
 Copying SCF densities to generalized density rwf, IOpCl= 0 IROHF=0.

 **********************************************************************

            Population analysis using the SCF density.

 **********************************************************************

 Orbital symmetries:
       Occupied  (A') (A") (A') (A") (A') (A') (A') (A") (A') (A")
                 (A') (A") (A") (A') (A') (A') (A') (A")
       Virtual   (A') (A") (A') (A') (A") (A") (A") (A') (A') (A")
                 (A") (A') (A") (A') (A') (A") (A') (A') (A") (A")
                 (A') (A") (A") (A') (A") (A') (A") (A') (A') (A")
                 (A') (A') (A") (A") (A')
 The electronic state is 1-A'.
 Alpha  occ. eigenvalues --  -19.10396 -10.17918 -10.17876 -10.13170 -10.13073
 Alpha  occ. eigenvalues --   -1.06644  -0.79819  -0.74068  -0.57941  -0.57848
 Alpha  occ. eigenvalues --   -0.53259  -0.44829  -0.42452  -0.41765  -0.38325
 Alpha  occ. eigenvalues --   -0.35779  -0.27074  -0.23733
 Alpha virt. eigenvalues --    0.00746   0.07005   0.10045   0.13661   0.16608
 Alpha virt. eigenvalues --    0.17590   0.18424   0.22808   0.35664   0.37446
 Alpha virt. eigenvalues --    0.44338   0.67827   0.68649   0.70251   0.73437
 Alpha virt. eigenvalues --    0.76731   0.79302   0.80284   0.81723   0.83772
 Alpha virt. eigenvalues --    0.92813   0.98426   1.01776   1.04078   1.18598
 Alpha virt. eigenvalues --    1.23588   1.36388   1.39524   1.50718   1.57429
 Alpha virt. eigenvalues --    1.61522   1.74293   1.89627   2.02373   3.11177
          Condensed to atoms (all electrons):
               1          2          3          4          5          6
     1  C    5.105075   0.382556   0.451522  -0.029725  -0.124817   0.004133
     2  H    0.382556   0.458053  -0.052367  -0.000440   0.003498  -0.000032
     3  C    0.451522  -0.052367   5.258907   0.378838   0.414629  -0.023100
     4  H   -0.029725  -0.000440   0.378838   0.475635  -0.023100  -0.000462
     5  C   -0.124817   0.003498   0.414629  -0.023100   5.258907   0.378838
     6  H    0.004133  -0.000032  -0.023100  -0.000462   0.378838   0.475635
     7  C   -0.124451   0.003055  -0.124817   0.004133   0.451522  -0.029725
     8  H    0.003055  -0.000028   0.003498  -0.000032  -0.052367  -0.000440
     9  O    0.284199  -0.017684  -0.065407   0.001633  -0.065407   0.001633
               7          8          9
     1  C   -0.124451   0.003055   0.284199
     2  H    0.003055  -0.000028  -0.017684
     3  C   -0.124817   0.003498  -0.065407
     4  H    0.004133  -0.000032   0.001633
     5  C    0.451522  -0.052367  -0.065407
     6  H   -0.029725  -0.000440   0.001633
     7  C    5.105075   0.382556   0.284199
     8  H    0.382556   0.458053  -0.017684
     9  O    0.284199  -0.017684   8.041829
 Mulliken charges:
               1
     1  C    0.048451
     2  H    0.223389
     3  C   -0.241702
     4  H    0.193518
     5  C   -0.241702
     6  H    0.193518
     7  C    0.048451
     8  H    0.223389
     9  O   -0.447312
 Sum of Mulliken charges =   0.00000
 Mulliken charges with hydrogens summed into heavy atoms:
               1
     1  C    0.271840
     3  C   -0.048184
     5  C   -0.048184
     7  C    0.271840
     9  O   -0.447312
 Electronic spatial extent (au):  <R**2>=            302.7517
 Charge=              0.0000 electrons
 Dipole moment (field-independent basis, Debye):
    X=             -0.4018    Y=              1.1901    Z=              0.0000  Tot=              1.2561
 Quadrupole moment (field-independent basis, Debye-Ang):
   XX=            -31.9433   YY=            -28.7328   ZZ=            -22.5762
   XY=              0.3967   XZ=              0.0000   YZ=              0.0000
 Traceless Quadrupole moment (field-independent basis, Debye-Ang):
   XX=             -4.1925   YY=             -0.9820   ZZ=              5.1746
   XY=              0.3967   XZ=              0.0000   YZ=              0.0000
 Octapole moment (field-independent basis, Debye-Ang**2):
  XXX=              0.9061  YYY=              3.3612  ZZZ=              0.0000  XYY=             -0.3332
  XXY=             -3.3165  XXZ=              0.0000  XZZ=             -1.4933  YZZ=             -3.3080
  YYZ=              0.0000  XYZ=              0.0000
 Hexadecapole moment (field-independent basis, Debye-Ang**3):
 XXXX=            -32.0580 YYYY=           -161.6389 ZZZZ=           -161.1470 XXXY=              3.5958
 XXXZ=              0.0000 YYYX=              3.9292 YYYZ=              0.0000 ZZZX=              0.0000
 ZZZY=              0.0000 XXYY=            -35.0974 XXZZ=            -41.2148 YYZZ=            -49.4137
 XXYZ=              0.0000 YYXZ=              0.0000 ZZXY=              1.7426
 N-N= 1.563653678103D+02 E-N=-8.452207229687D+02  KE= 2.265026552942D+02
 Symmetry A'   KE= 1.483748119032D+02
 Symmetry A"   KE= 7.812784339102D+01
 No NMR shielding tensors so no spin-rotation constants.
 Leave Link  601 at Sat Mar 12 18:40:36 2016, MaxMem=    33554432 cpu:         0.0
 (Enter /opt/g09/g09/l701.exe)
 Compute integral first derivatives.
 ... and contract with generalized density number  0.
 Leave Link  701 at Sat Mar 12 18:40:36 2016, MaxMem=    33554432 cpu:         0.0
 (Enter /opt/g09/g09/l702.exe)
 L702 exits ... SP integral derivatives will be done elsewhere.
 Leave Link  702 at Sat Mar 12 18:40:36 2016, MaxMem=    33554432 cpu:         0.0
 (Enter /opt/g09/g09/l703.exe)
 Compute integral first derivatives, UseDBF=F ICtDFT=           0.
 Integral derivatives from FoFJK, PRISM(SPDF).
 Calling FoFJK, ICntrl=      2127 FMM=F ISym2X=1 I1Cent= 0 IOpClX= 0 NMat=1 NMatS=1 NMatT=0.
 FoFJK:  IHMeth= 1 ICntrl=    2127 DoSepK=F KAlg= 0 I1Cent=   0 FoldK=F
 IRaf=         0 NMat=   1 IRICut=       1 DoRegI=T DoRafI=F ISym2E= 1.
 FoFCou: FMM=F IPFlag=           0 FMFlag=      100000 FMFlg1=         800
         NFxFlg=           0 DoJE=F BraDBF=F KetDBF=F FulRan=T
         wScrn=  0.000000 ICntrl=    2127 IOpCl=  0 I1Cent=           0 NGrid=           0
         NMat0=    1 NMatS0=      1 NMatT0=    0 NMatD0=    1 NMtDS0=    0 NMtDT0=    0
 Petite list used in FoFCou.
 Leave Link  703 at Sat Mar 12 18:40:36 2016, MaxMem=    33554432 cpu:         0.3
 (Enter /opt/g09/g09/l716.exe)
 Dipole        =-1.58069090D-01 4.68223920D-01-4.97339452D-15
 ***** Axes restored to original set *****
 -------------------------------------------------------------------
 Center     Atomic                   Forces (Hartrees/Bohr)
 Number     Number              X              Y              Z
 -------------------------------------------------------------------
      1        6           0.018272207    0.002012260   -0.007905545
      2        1           0.004182106    0.019616681    0.003403687
      3        6           0.034852834   -0.010576407    0.015957581
      4        1          -0.003917832   -0.004383992   -0.000230291
      5        6          -0.035951466    0.009467350   -0.014109789
      6        1           0.000484617   -0.005630267    0.001639229
      7        6          -0.004489845    0.008455894   -0.017571555
      8        1           0.004064253    0.019650044    0.003353640
      9        8          -0.017496873   -0.038611563    0.015463044
 -------------------------------------------------------------------
 Cartesian Forces:  Max     0.038611563 RMS     0.015981948
 Leave Link  716 at Sat Mar 12 18:40:36 2016, MaxMem=    33554432 cpu:         0.0
 (Enter /opt/g09/g09/l103.exe)

 GradGradGradGradGradGradGradGradGradGradGradGradGradGradGradGradGradGrad
 Berny optimization.
 FormGI is forming the generalized inverse of G from B-inverse, IUseBI=4.
 Internal  Forces:  Max     0.029018060 RMS     0.011131270
 Search for a local minimum.
 Step number   1 out of a maximum of   48
 All quantities printed in internal units (Hartrees-Bohrs-Radians)
 RMS Force = .11131D-01 SwitMx=.10000D-02 MixMth= 1
 Mixed Optimization -- RFO/linear search
 Second derivative matrix not updated -- first step.
 ITU=  0
     Eigenvalues ---    0.01335   0.01421   0.01855   0.02131   0.02232
     Eigenvalues ---    0.02327   0.15997   0.15999   0.16000   0.16000
     Eigenvalues ---    0.21882   0.22730   0.30742   0.35940   0.36260
     Eigenvalues ---    0.37230   0.37230   0.37230   0.37230   0.50776
     Eigenvalues ---    0.55521
 RFO step:  Lambda=-2.69340474D-02 EMin= 1.33456574D-02
 Linear search not attempted -- first point.
 Iteration  1 RMS(Cart)=  0.07650563 RMS(Int)=  0.01171735
 Iteration  2 RMS(Cart)=  0.00976335 RMS(Int)=  0.00446196
 Iteration  3 RMS(Cart)=  0.00013074 RMS(Int)=  0.00445955
 Iteration  4 RMS(Cart)=  0.00000079 RMS(Int)=  0.00445955
 ITry= 1 IFail=0 DXMaxC= 2.31D-01 DCOld= 1.00D+10 DXMaxT= 3.00D-01 DXLimC= 3.00D+00 Rises=F
 ClnCor:  largest displacement from symmetrization is 5.61D-09 for atom     6.
 Variable       Old X    -DE/DX   Delta X   Delta X   Delta X     New X
                                 (Linear)    (Quad)   (Total)
    R1        2.02201   0.00512   0.00000   0.01281   0.01281   2.03482
    R2        2.54336   0.00711   0.00000   0.01223   0.01254   2.55590
    R3        2.75070  -0.02902   0.00000  -0.07254  -0.07341   2.67730
    R4        2.02201   0.00492   0.00000   0.01232   0.01232   2.03432
    R5        2.84813  -0.02697   0.00000  -0.07799  -0.07689   2.77124
    R6        2.02201   0.00492   0.00000   0.01232   0.01232   2.03432
    R7        2.54336   0.00711   0.00000   0.01223   0.01254   2.55590
    R8        2.02201   0.00512   0.00000   0.01281   0.01281   2.03482
    R9        2.75070  -0.02902   0.00000  -0.07254  -0.07341   2.67730
    A1        2.16857   0.02020   0.00000   0.10106   0.10223   2.27080
    A2        2.16866  -0.01790   0.00000  -0.10274  -0.10021   2.06845
    A3        1.94595  -0.00231   0.00000   0.00145  -0.00697   1.93898
    A4        2.21248   0.00110   0.00000  -0.00086   0.00117   2.21365
    A5        1.85840  -0.00113   0.00000   0.00802   0.00253   1.86093
    A6        2.21224   0.00004   0.00000  -0.00653  -0.00431   2.20793
    A7        2.21224   0.00004   0.00000  -0.00653  -0.00431   2.20793
    A8        1.85840  -0.00113   0.00000   0.00802   0.00253   1.86093
    A9        2.21248   0.00110   0.00000  -0.00086   0.00117   2.21365
   A10        2.16857   0.02020   0.00000   0.10106   0.10223   2.27080
   A11        1.94595  -0.00231   0.00000   0.00145  -0.00697   1.93898
   A12        2.16866  -0.01790   0.00000  -0.10274  -0.10021   2.06845
   A13        1.78928   0.00978   0.00000   0.04718   0.03448   1.82376
    D1        0.12676  -0.00094   0.00000  -0.01011  -0.00726   0.11950
    D2       -3.00256  -0.00278   0.00000  -0.06326  -0.05716  -3.05972
    D3       -3.01722  -0.00606   0.00000  -0.11602  -0.11536  -3.13259
    D4        0.13664  -0.00790   0.00000  -0.16917  -0.16526  -0.02862
    D5        2.92893   0.00583   0.00000   0.15123   0.16133   3.09026
    D6       -0.21027   0.01089   0.00000   0.25682   0.25508   0.04480
    D7        3.12932   0.00184   0.00000   0.05319   0.04974  -3.10413
    D8        0.00000   0.00000   0.00000   0.00000   0.00000   0.00000
    D9        0.00000   0.00000   0.00000   0.00000   0.00000   0.00000
   D10       -3.12932  -0.00184   0.00000  -0.05319  -0.04974   3.10413
   D11        3.00256   0.00278   0.00000   0.06326   0.05716   3.05972
   D12       -0.13664   0.00790   0.00000   0.16917   0.16526   0.02862
   D13       -0.12676   0.00094   0.00000   0.01011   0.00726  -0.11950
   D14        3.01722   0.00606   0.00000   0.11602   0.11536   3.13259
   D15        0.21027  -0.01089   0.00000  -0.25682  -0.25508  -0.04480
   D16       -2.92893  -0.00583   0.00000  -0.15123  -0.16133  -3.09026
         Item               Value     Threshold  Converged?
 Maximum Force            0.029018     0.000450     NO 
 RMS     Force            0.011131     0.000300     NO 
 Maximum Displacement     0.231158     0.001800     NO 
 RMS     Displacement     0.083000     0.001200     NO 
 Predicted change in Energy=-1.807864D-02
 Lowest energy point so far.  Saving SCF results.
 GradGradGradGradGradGradGradGradGradGradGradGradGradGradGradGradGradGrad

 Leave Link  103 at Sat Mar 12 18:40:36 2016, MaxMem=    33554432 cpu:         0.0
 (Enter /opt/g09/g09/l202.exe)
                          Input orientation:                          
 ---------------------------------------------------------------------
 Center     Atomic      Atomic             Coordinates (Angstroms)
 Number     Number       Type             X           Y           Z
 ---------------------------------------------------------------------
      1          6           0       -2.298732    1.712112    0.133609
      2          1           0       -3.173649    2.325074   -0.001502
      3          6           0       -2.052298    0.444547   -0.268718
      4          1           0       -2.673714   -0.163323   -0.903719
      5          6           0       -0.746100    0.074780    0.285965
      6          1           0       -0.226683   -0.856045    0.135424
      7          6           0       -0.303243    1.147215    0.981003
      8          1           0        0.576446    1.263472    1.590993
      9          8           0       -1.252271    2.198838    0.955338
 ---------------------------------------------------------------------
                    Distance matrix (angstroms):
                    1          2          3          4          5
     1  C    0.000000
     2  H    1.076781   0.000000
     3  C    1.352522   2.205724   0.000000
     4  H    2.175756   2.693706   1.076518   0.000000
     5  C    2.261578   3.322568   1.466477   2.277660   0.000000
     6  H    3.299821   4.338534   2.277660   2.747297   1.076518
     7  C    2.240348   3.254519   2.261578   3.299821   1.352522
     8  H    3.254519   4.210256   3.322568   4.338534   2.205724
     9  O    1.416765   2.150157   2.283833   3.325116   2.283833
                    6          7          8          9
     6  H    0.000000
     7  C    2.175756   0.000000
     8  H    2.693706   1.076781   0.000000
     9  O    3.325116   1.416765   2.150157   0.000000
 Stoichiometry    C4H4O
 Framework group  CS[SG(O),X(C4H4)]
 Deg. of freedom    11
 Full point group                 CS      NOp   2
 RotChk:  IX=0 Diff= 4.47D-02
 Largest Abelian subgroup         CS      NOp   2
 Largest concise Abelian subgroup CS      NOp   2
                         Standard orientation:                         
 ---------------------------------------------------------------------
 Center     Atomic      Atomic             Coordinates (Angstroms)
 Number     Number       Type             X           Y           Z
 ---------------------------------------------------------------------
      1          6           0        0.010347   -0.335576    1.120174
      2          1           0       -0.057006   -0.765445    2.105128
      3          6           0        0.010347    0.960417    0.733238
      4          1           0        0.042760    1.825121    1.373649
      5          6           0        0.010347    0.960417   -0.733238
      6          1           0        0.042760    1.825121   -1.373649
      7          6           0        0.010347   -0.335576   -1.120174
      8          1           0       -0.057006   -0.765445   -2.105128
      9          8           0       -0.027479   -1.202180    0.000000
 ---------------------------------------------------------------------
 Rotational constants (GHZ):      9.0624853      9.0545734      4.5302337
 Leave Link  202 at Sat Mar 12 18:40:36 2016, MaxMem=    33554432 cpu:         0.0
 (Enter /opt/g09/g09/l301.exe)
 Standard basis: 3-21G (6D, 7F)
 Ernie: Thresh=  0.10000D-02 Tol=  0.10000D-05 Strict=F.
 There are    29 symmetry adapted cartesian basis functions of A'  symmetry.
 There are    24 symmetry adapted cartesian basis functions of A"  symmetry.
 There are    29 symmetry adapted basis functions of A'  symmetry.
 There are    24 symmetry adapted basis functions of A"  symmetry.
    53 basis functions,    87 primitive gaussians,    53 cartesian basis functions
    18 alpha electrons       18 beta electrons
       nuclear repulsion energy       158.2194574787 Hartrees.
 IExCor=  402 DFT=T Ex+Corr=B3LYP ExCW=0 ScaHFX=  0.200000
 ScaDFX=  0.800000  0.720000  1.000000  0.810000 ScalE2=  1.000000  1.000000
 IRadAn=      0 IRanWt=     -1 IRanGd=            0 ICorTp=0 IEmpDi=  4
 NAtoms=    9 NActive=    9 NUniq=    5 SFac= 3.24D+00 NAtFMM=   60 NAOKFM=F Big=F
 Integral buffers will be    131072 words long.
 Raffenetti 2 integral format.
 Two-electron integral symmetry is turned on.
 Leave Link  301 at Sat Mar 12 18:40:36 2016, MaxMem=    33554432 cpu:         0.0
 (Enter /opt/g09/g09/l302.exe)
 NPDir=0 NMtPBC=     1 NCelOv=     1 NCel=       1 NClECP=     1 NCelD=      1
         NCelK=      1 NCelE2=     1 NClLst=     1 CellRange=     0.0.
 One-electron integrals computed using PRISM.
 One-electron integral symmetry used in STVInt
 NBasis=    53 RedAO= T EigKep=  2.60D-03  NBF=    29    24
 NBsUse=    53 1.00D-06 EigRej= -1.00D+00 NBFU=    29    24
 Precomputing XC quadrature grid using
 IXCGrd= 4 IRadAn=           0 IRanWt=          -1 IRanGd=           0 AccXCQ= 0.00D+00.
 Generated NRdTot=       0 NPtTot=           0 NUsed=           0 NTot=          32
 NSgBfM=    53    53    53    53    53 MxSgAt=     9 MxSgA2=     9.
 Leave Link  302 at Sat Mar 12 18:40:36 2016, MaxMem=    33554432 cpu:         0.1
 (Enter /opt/g09/g09/l303.exe)
 DipDrv:  MaxL=1.
 Leave Link  303 at Sat Mar 12 18:40:36 2016, MaxMem=    33554432 cpu:         0.0
 (Enter /opt/g09/g09/l401.exe)
 Initial guess from the checkpoint file:  "/opt/g09/scratch/Gau-16429.chk"
 B after Tr=     0.000000    0.000000    0.000000
         Rot=    0.999401    0.000000    0.000000    0.034603 Ang=   3.97 deg.
 Guess basis will be translated and rotated to current coordinates.
 JPrj=2 DoOrth=T DoCkMO=T.
 Initial guess orbital symmetries:
       Occupied  (A') (A") (A') (A") (A') (A') (A') (A") (A') (A")
                 (A') (A") (A") (A') (A') (A') (A') (A")
       Virtual   (A') (A') (A') (A') (A') (A') (A') (A') (A') (A')
                 (A') (A') (A') (A') (A') (A') (A') (A') (A") (A")
                 (A") (A") (A") (A") (A") (A") (A") (A") (A") (A")
                 (A") (A") (A") (A") (A")
 The electronic state of the initial guess is 1-A'.
 Generating alternative initial guess.
 ExpMin= 1.83D-01 ExpMax= 3.22D+02 ExpMxC= 3.22D+02 IAcc=1 IRadAn=         1 AccDes= 0.00D+00
 Harris functional with IExCor=  402 and IRadAn=       1 diagonalized for initial guess.
 HarFok:  IExCor=  402 AccDes= 0.00D+00 IRadAn=         1 IDoV= 1 UseB2=F ITyADJ=14
 ICtDFT=  3500011 ScaDFX=  1.000000  1.000000  1.000000  1.000000
 FoFCou: FMM=F IPFlag=           0 FMFlag=      100000 FMFlg1=           0
         NFxFlg=           0 DoJE=T BraDBF=F KetDBF=T FulRan=T
         wScrn=  0.000000 ICntrl=     500 IOpCl=  0 I1Cent=   200000004 NGrid=           0
         NMat0=    1 NMatS0=      1 NMatT0=    0 NMatD0=    1 NMtDS0=    0 NMtDT0=    0
 Petite list used in FoFCou.
 Harris En= -228.740548981565    
 Leave Link  401 at Sat Mar 12 18:40:36 2016, MaxMem=    33554432 cpu:         0.1
 (Enter /opt/g09/g09/l502.exe)
 Closed shell SCF:
 Using DIIS extrapolation, IDIIS=  1040.
 Integral symmetry usage will be decided dynamically.
 Keep R1 ints in memory in symmetry-blocked form, NReq=1928962.
 IVT=       27787 IEndB=       27787 NGot=    33554432 MDV=    33010323
 LenX=    33010323 LenY=    33007073
 Requested convergence on RMS density matrix=1.00D-08 within 128 cycles.
 Requested convergence on MAX density matrix=1.00D-06.
 Requested convergence on             energy=1.00D-06.
 No special actions if energy rises.
 FoFCou: FMM=F IPFlag=           0 FMFlag=           0 FMFlg1=           0
         NFxFlg=           0 DoJE=F BraDBF=F KetDBF=F FulRan=T
         wScrn=  0.000000 ICntrl=     600 IOpCl=  0 I1Cent=           0 NGrid=           0
         NMat0=    1 NMatS0=   1431 NMatT0=    0 NMatD0=    1 NMtDS0=    0 NMtDT0=    0
 Petite list used in FoFCou.
 Integral accuracy reduced to 1.0D-05 until final iterations.

 Cycle   1  Pass 0  IDiag  1:
 E= -228.734209285068    
 DIIS: error= 1.61D-02 at cycle   1 NSaved=   1.
 NSaved= 1 IEnMin= 1 EnMin= -228.734209285068     IErMin= 1 ErrMin= 1.61D-02
 ErrMax= 1.61D-02  0.00D+00 EMaxC= 1.00D-01 BMatC= 1.07D-02 BMatP= 1.07D-02
 IDIUse=3 WtCom= 8.39D-01 WtEn= 1.61D-01
 Coeff-Com:  0.100D+01
 Coeff-En:   0.100D+01
 Coeff:      0.100D+01
 Recover alternate guess density for next cycle.
 RMSDP=6.24D-03 MaxDP=4.87D-02              OVMax= 0.00D+00

 Cycle   2  Pass 0  IDiag  1:
 E= -228.676455463619     Delta-E=        0.057753821449 Rises=F Damp=F
 Switch densities from cycles 1 and 2 for lowest energy.
 DIIS: error= 4.08D-02 at cycle   2 NSaved=   2.
 NSaved= 2 IEnMin= 1 EnMin= -228.734209285068     IErMin= 1 ErrMin= 1.61D-02
 ErrMax= 4.08D-02  0.00D+00 EMaxC= 1.00D+00 BMatC= 7.14D-02 BMatP= 1.07D-02
 IDIUse=1 WtCom= 1.00D+00 WtEn= 0.00D+00
 Coeff-Com:  0.862D+00 0.138D+00
 Coeff:      0.862D+00 0.138D+00
 Gap=     0.728 Goal=   None    Shift=    0.000
 RMSDP=3.61D-03 MaxDP=2.78D-02 DE= 5.78D-02 OVMax= 5.26D-02

 Cycle   3  Pass 0  IDiag  1:
 E= -228.748461230638     Delta-E=       -0.072005767019 Rises=F Damp=F
 DIIS: error= 1.01D-02 at cycle   3 NSaved=   3.
 NSaved= 3 IEnMin= 3 EnMin= -228.748461230638     IErMin= 3 ErrMin= 1.01D-02
 ErrMax= 1.01D-02  0.00D+00 EMaxC= 1.00D+00 BMatC= 2.91D-03 BMatP= 1.07D-02
 IDIUse=1 WtCom= 1.00D+00 WtEn= 0.00D+00
 Coeff-Com:  0.718D-01 0.131D+00 0.797D+00
 Coeff:      0.718D-01 0.131D+00 0.797D+00
 Gap=     0.252 Goal=   None    Shift=    0.000
 RMSDP=1.81D-03 MaxDP=1.62D-02 DE=-7.20D-02 OVMax= 4.40D-02

 Cycle   4  Pass 0  IDiag  1:
 E= -228.749246291687     Delta-E=       -0.000785061048 Rises=F Damp=F
 DIIS: error= 9.14D-03 at cycle   4 NSaved=   4.
 NSaved= 4 IEnMin= 4 EnMin= -228.749246291687     IErMin= 4 ErrMin= 9.14D-03
 ErrMax= 9.14D-03  0.00D+00 EMaxC= 1.00D+00 BMatC= 2.63D-03 BMatP= 2.91D-03
 IDIUse=1 WtCom= 1.00D+00 WtEn= 0.00D+00
 Coeff-Com: -0.287D-01 0.613D-01 0.557D+00 0.410D+00
 Coeff:     -0.287D-01 0.613D-01 0.557D+00 0.410D+00
 Gap=     0.250 Goal=   None    Shift=    0.000
 RMSDP=8.52D-04 MaxDP=8.27D-03 DE=-7.85D-04 OVMax= 1.88D-02

 Cycle   5  Pass 0  IDiag  1:
 E= -228.751413771063     Delta-E=       -0.002167479376 Rises=F Damp=F
 DIIS: error= 5.63D-04 at cycle   5 NSaved=   5.
 NSaved= 5 IEnMin= 5 EnMin= -228.751413771063     IErMin= 5 ErrMin= 5.63D-04
 ErrMax= 5.63D-04  0.00D+00 EMaxC= 1.00D+00 BMatC= 1.35D-05 BMatP= 2.63D-03
 IDIUse=1 WtCom= 1.00D+00 WtEn= 0.00D+00
 Coeff-Com: -0.664D-02 0.588D-02 0.115D+00 0.103D+00 0.782D+00
 Coeff:     -0.664D-02 0.588D-02 0.115D+00 0.103D+00 0.782D+00
 Gap=     0.250 Goal=   None    Shift=    0.000
 RMSDP=1.06D-04 MaxDP=1.13D-03 DE=-2.17D-03 OVMax= 2.28D-03

 Cycle   6  Pass 0  IDiag  1:
 E= -228.751421243839     Delta-E=       -0.000007472776 Rises=F Damp=F
 DIIS: error= 4.02D-04 at cycle   6 NSaved=   6.
 NSaved= 6 IEnMin= 6 EnMin= -228.751421243839     IErMin= 6 ErrMin= 4.02D-04
 ErrMax= 4.02D-04  0.00D+00 EMaxC= 1.00D+00 BMatC= 6.06D-06 BMatP= 1.35D-05
 IDIUse=1 WtCom= 1.00D+00 WtEn= 0.00D+00
 Coeff-Com: -0.225D-02 0.469D-03 0.331D-01 0.334D-01 0.466D+00 0.469D+00
 Coeff:     -0.225D-02 0.469D-03 0.331D-01 0.334D-01 0.466D+00 0.469D+00
 Gap=     0.250 Goal=   None    Shift=    0.000
 RMSDP=4.29D-05 MaxDP=4.41D-04 DE=-7.47D-06 OVMax= 9.05D-04

 Cycle   7  Pass 0  IDiag  1:
 E= -228.751427006814     Delta-E=       -0.000005762975 Rises=F Damp=F
 DIIS: error= 3.01D-05 at cycle   7 NSaved=   7.
 NSaved= 7 IEnMin= 7 EnMin= -228.751427006814     IErMin= 7 ErrMin= 3.01D-05
 ErrMax= 3.01D-05  0.00D+00 EMaxC= 1.00D+00 BMatC= 4.55D-08 BMatP= 6.06D-06
 IDIUse=1 WtCom= 1.00D+00 WtEn= 0.00D+00
 Coeff-Com: -0.688D-04-0.223D-03-0.152D-02-0.200D-02 0.522D-01 0.989D-01
 Coeff-Com:  0.853D+00
 Coeff:     -0.688D-04-0.223D-03-0.152D-02-0.200D-02 0.522D-01 0.989D-01
 Coeff:      0.853D+00
 Gap=     0.250 Goal=   None    Shift=    0.000
 RMSDP=7.00D-06 MaxDP=5.76D-05 DE=-5.76D-06 OVMax= 1.01D-04

 Initial convergence to 1.0D-05 achieved.  Increase integral accuracy.
 Cycle   8  Pass 1  IDiag  1:
 E= -228.751493503583     Delta-E=       -0.000066496769 Rises=F Damp=F
 DIIS: error= 1.74D-05 at cycle   1 NSaved=   1.
 NSaved= 1 IEnMin= 1 EnMin= -228.751493503583     IErMin= 1 ErrMin= 1.74D-05
 ErrMax= 1.74D-05  0.00D+00 EMaxC= 1.00D+00 BMatC= 1.27D-08 BMatP= 1.27D-08
 IDIUse=1 WtCom= 1.00D+00 WtEn= 0.00D+00
 Coeff-Com:  0.100D+01
 Coeff:      0.100D+01
 Gap=     0.250 Goal=   None    Shift=    0.000
 RMSDP=7.00D-06 MaxDP=5.76D-05 DE=-6.65D-05 OVMax= 2.61D-05

 Cycle   9  Pass 1  IDiag  1:
 E= -228.751493520591     Delta-E=       -0.000000017008 Rises=F Damp=F
 DIIS: error= 3.13D-06 at cycle   2 NSaved=   2.
 NSaved= 2 IEnMin= 2 EnMin= -228.751493520591     IErMin= 2 ErrMin= 3.13D-06
 ErrMax= 3.13D-06  0.00D+00 EMaxC= 1.00D+00 BMatC= 4.61D-10 BMatP= 1.27D-08
 IDIUse=1 WtCom= 1.00D+00 WtEn= 0.00D+00
 Coeff-Com:  0.261D-01 0.974D+00
 Coeff:      0.261D-01 0.974D+00
 Gap=     0.250 Goal=   None    Shift=    0.000
 RMSDP=9.98D-07 MaxDP=8.06D-06 DE=-1.70D-08 OVMax= 1.97D-05

 Cycle  10  Pass 1  IDiag  1:
 E= -228.751493520022     Delta-E=        0.000000000568 Rises=F Damp=F
 DIIS: error= 6.31D-06 at cycle   3 NSaved=   3.
 NSaved= 3 IEnMin= 2 EnMin= -228.751493520591     IErMin= 2 ErrMin= 3.13D-06
 ErrMax= 6.31D-06  0.00D+00 EMaxC= 1.00D+00 BMatC= 1.13D-09 BMatP= 4.61D-10
 IDIUse=1 WtCom= 1.00D+00 WtEn= 0.00D+00
 Coeff-Com: -0.136D-01 0.625D+00 0.389D+00
 Coeff:     -0.136D-01 0.625D+00 0.389D+00
 Gap=     0.250 Goal=   None    Shift=    0.000
 RMSDP=6.88D-07 MaxDP=5.62D-06 DE= 5.68D-10 OVMax= 1.60D-05

 Cycle  11  Pass 1  IDiag  1:
 E= -228.751493520996     Delta-E=       -0.000000000974 Rises=F Damp=F
 DIIS: error= 1.12D-06 at cycle   4 NSaved=   4.
 NSaved= 4 IEnMin= 4 EnMin= -228.751493520996     IErMin= 4 ErrMin= 1.12D-06
 ErrMax= 1.12D-06  0.00D+00 EMaxC= 1.00D+00 BMatC= 4.94D-11 BMatP= 4.61D-10
 IDIUse=1 WtCom= 1.00D+00 WtEn= 0.00D+00
 Coeff-Com: -0.108D-01 0.254D+00 0.223D+00 0.535D+00
 Coeff:     -0.108D-01 0.254D+00 0.223D+00 0.535D+00
 Gap=     0.250 Goal=   None    Shift=    0.000
 RMSDP=1.44D-07 MaxDP=1.40D-06 DE=-9.74D-10 OVMax= 2.55D-06

 Cycle  12  Pass 1  IDiag  1:
 E= -228.751493521043     Delta-E=       -0.000000000046 Rises=F Damp=F
 DIIS: error= 1.14D-07 at cycle   5 NSaved=   5.
 NSaved= 5 IEnMin= 5 EnMin= -228.751493521043     IErMin= 5 ErrMin= 1.14D-07
 ErrMax= 1.14D-07  0.00D+00 EMaxC= 1.00D+00 BMatC= 7.77D-13 BMatP= 4.94D-11
 IDIUse=1 WtCom= 1.00D+00 WtEn= 0.00D+00
 Coeff-Com: -0.199D-02 0.344D-01 0.395D-01 0.170D+00 0.759D+00
 Coeff:     -0.199D-02 0.344D-01 0.395D-01 0.170D+00 0.759D+00
 Gap=     0.250 Goal=   None    Shift=    0.000
 RMSDP=2.67D-08 MaxDP=2.75D-07 DE=-4.64D-11 OVMax= 3.65D-07

 Cycle  13  Pass 1  IDiag  1:
 E= -228.751493521044     Delta-E=       -0.000000000001 Rises=F Damp=F
 DIIS: error= 8.99D-08 at cycle   6 NSaved=   6.
 NSaved= 6 IEnMin= 6 EnMin= -228.751493521044     IErMin= 6 ErrMin= 8.99D-08
 ErrMax= 8.99D-08  0.00D+00 EMaxC= 1.00D+00 BMatC= 2.39D-13 BMatP= 7.77D-13
 IDIUse=1 WtCom= 1.00D+00 WtEn= 0.00D+00
 Coeff-Com: -0.782D-03 0.744D-02 0.111D-01 0.770D-01 0.450D+00 0.455D+00
 Coeff:     -0.782D-03 0.744D-02 0.111D-01 0.770D-01 0.450D+00 0.455D+00
 Gap=     0.250 Goal=   None    Shift=    0.000
 RMSDP=9.12D-09 MaxDP=7.58D-08 DE=-1.36D-12 OVMax= 1.94D-07

 SCF Done:  E(RB3LYP) =  -228.751493521     A.U. after   13 cycles
            NFock= 13  Conv=0.91D-08     -V/T= 2.0094
 KE= 2.266305094480D+02 PE=-8.489485005721D+02 EE= 2.353470401243D+02
 Leave Link  502 at Sat Mar 12 18:40:38 2016, MaxMem=    33554432 cpu:         1.5
 (Enter /opt/g09/g09/l701.exe)
 Compute integral first derivatives.
 ... and contract with generalized density number  0.
 Leave Link  701 at Sat Mar 12 18:40:38 2016, MaxMem=    33554432 cpu:         0.0
 (Enter /opt/g09/g09/l702.exe)
 L702 exits ... SP integral derivatives will be done elsewhere.
 Leave Link  702 at Sat Mar 12 18:40:38 2016, MaxMem=    33554432 cpu:         0.0
 (Enter /opt/g09/g09/l703.exe)
 Compute integral first derivatives, UseDBF=F ICtDFT=           0.
 Integral derivatives from FoFJK, PRISM(SPDF).
 Calling FoFJK, ICntrl=      2127 FMM=F ISym2X=1 I1Cent= 0 IOpClX= 0 NMat=1 NMatS=1 NMatT=0.
 FoFJK:  IHMeth= 1 ICntrl=    2127 DoSepK=F KAlg= 0 I1Cent=   0 FoldK=F
 IRaf=         0 NMat=   1 IRICut=       1 DoRegI=T DoRafI=F ISym2E= 1.
 FoFCou: FMM=F IPFlag=           0 FMFlag=      100000 FMFlg1=         800
         NFxFlg=           0 DoJE=F BraDBF=F KetDBF=F FulRan=T
         wScrn=  0.000000 ICntrl=    2127 IOpCl=  0 I1Cent=           0 NGrid=           0
         NMat0=    1 NMatS0=      1 NMatT0=    0 NMatD0=    1 NMtDS0=    0 NMtDT0=    0
 Petite list used in FoFCou.
 Leave Link  703 at Sat Mar 12 18:40:38 2016, MaxMem=    33554432 cpu:         0.3
 (Enter /opt/g09/g09/l716.exe)
 Dipole        =-1.80475226D-02 3.87009218D-01-6.59728317D-16
 ***** Axes restored to original set *****
 -------------------------------------------------------------------
 Center     Atomic                   Forces (Hartrees/Bohr)
 Number     Number              X              Y              Z
 -------------------------------------------------------------------
      1        6          -0.006086165    0.002574375    0.007316545
      2        1           0.004896706    0.005125765    0.001612369
      3        6           0.015018633   -0.005754657    0.000680610
      4        1          -0.000568060   -0.000208976    0.000906471
      5        6          -0.011855040    0.001852923   -0.010731418
      6        1          -0.000371364   -0.000264658    0.000989998
      7        6          -0.000202751    0.000908858    0.009814964
      8        1          -0.001656994    0.006981030   -0.001170690
      9        8           0.000825035   -0.011214662   -0.009418848
 -------------------------------------------------------------------
 Cartesian Forces:  Max     0.015018633 RMS     0.006194145
 Leave Link  716 at Sat Mar 12 18:40:38 2016, MaxMem=    33554432 cpu:         0.0
 (Enter /opt/g09/g09/l103.exe)

 GradGradGradGradGradGradGradGradGradGradGradGradGradGradGradGradGradGrad
 Berny optimization.
 Using GEDIIS/GDIIS optimizer.
 FormGI is forming the generalized inverse of G from B-inverse, IUseBI=4.
 Internal  Forces:  Max     0.009464763 RMS     0.003986973
 Search for a local minimum.
 Step number   2 out of a maximum of   48
 All quantities printed in internal units (Hartrees-Bohrs-Radians)
 RMS Force = .39870D-02 SwitMx=.10000D-02 MixMth= 1
 Mixed Optimization -- RFO/linear search
 Update second derivatives using D2CorX and points    1    2
 DE= -1.57D-02 DEPred=-1.81D-02 R= 8.71D-01
 TightC=F SS=  1.41D+00  RLast= 5.79D-01 DXNew= 5.0454D-01 1.7363D+00
 Trust test= 8.71D-01 RLast= 5.79D-01 DXMaxT set to 5.05D-01
 ITU=  1  0
 Use linear search instead of GDIIS.
     Eigenvalues ---    0.01352   0.01781   0.01858   0.02337   0.02377
     Eigenvalues ---    0.03747   0.11061   0.15908   0.15979   0.15991
     Eigenvalues ---    0.21997   0.22596   0.28896   0.32371   0.36056
     Eigenvalues ---    0.37228   0.37230   0.37230   0.37403   0.50719
     Eigenvalues ---    0.55270
 RFO step:  Lambda=-5.16993148D-03 EMin= 1.35179264D-02
 Quartic linear search produced a step of  0.15108.
 Iteration  1 RMS(Cart)=  0.04734817 RMS(Int)=  0.00338118
 Iteration  2 RMS(Cart)=  0.00304496 RMS(Int)=  0.00212471
 Iteration  3 RMS(Cart)=  0.00000373 RMS(Int)=  0.00212471
 Iteration  4 RMS(Cart)=  0.00000000 RMS(Int)=  0.00212471
 ITry= 1 IFail=0 DXMaxC= 1.60D-01 DCOld= 1.00D+10 DXMaxT= 5.05D-01 DXLimC= 3.00D+00 Rises=F
 ClnCor:  largest displacement from symmetrization is 9.56D-09 for atom     5.
 Variable       Old X    -DE/DX   Delta X   Delta X   Delta X     New X
                                 (Linear)    (Quad)   (Total)
    R1        2.03482  -0.00126   0.00194  -0.00089   0.00104   2.03586
    R2        2.55590   0.00521   0.00189   0.01399   0.01591   2.57181
    R3        2.67730  -0.00946  -0.01109  -0.04702  -0.05820   2.61910
    R4        2.03432  -0.00009   0.00186   0.00262   0.00448   2.03880
    R5        2.77124  -0.00889  -0.01162  -0.04893  -0.06043   2.71080
    R6        2.03432  -0.00009   0.00186   0.00262   0.00448   2.03880
    R7        2.55590   0.00521   0.00189   0.01399   0.01591   2.57181
    R8        2.03482  -0.00126   0.00194  -0.00089   0.00104   2.03586
    R9        2.67730  -0.00946  -0.01109  -0.04702  -0.05820   2.61910
    A1        2.27080   0.00863   0.01544   0.08418   0.09822   2.36901
    A2        2.06845  -0.00510  -0.01514  -0.05597  -0.07252   1.99593
    A3        1.93898  -0.00325  -0.00105  -0.01655  -0.02073   1.91824
    A4        2.21365  -0.00027   0.00018  -0.00171  -0.00141   2.21224
    A5        1.86093   0.00022   0.00038   0.00396   0.00308   1.86402
    A6        2.20793   0.00008  -0.00065  -0.00048  -0.00100   2.20692
    A7        2.20793   0.00008  -0.00065  -0.00048  -0.00100   2.20692
    A8        1.86093   0.00022   0.00038   0.00396   0.00308   1.86402
    A9        2.21365  -0.00027   0.00018  -0.00171  -0.00141   2.21224
   A10        2.27080   0.00863   0.01544   0.08418   0.09822   2.36901
   A11        1.93898  -0.00325  -0.00105  -0.01655  -0.02073   1.91824
   A12        2.06845  -0.00510  -0.01514  -0.05597  -0.07252   1.99593
   A13        1.82376   0.00618   0.00521   0.03221   0.03525   1.85901
    D1        0.11950  -0.00184  -0.00110  -0.08958  -0.09224   0.02727
    D2       -3.05972  -0.00113  -0.00863  -0.04027  -0.05232  -3.11204
    D3       -3.13259   0.00078  -0.01743   0.03517   0.01751  -3.11508
    D4       -0.02862   0.00149  -0.02497   0.08448   0.05742   0.02880
    D5        3.09026   0.00109   0.02437  -0.01322   0.00465   3.09492
    D6        0.04480  -0.00215   0.03854  -0.13142  -0.09090  -0.04610
    D7       -3.10413  -0.00069   0.00751  -0.04907  -0.03975   3.13931
    D8        0.00000   0.00000   0.00000   0.00000   0.00000   0.00000
    D9        0.00000   0.00000   0.00000   0.00000   0.00000   0.00000
   D10        3.10413   0.00069  -0.00751   0.04907   0.03975  -3.13931
   D11        3.05972   0.00113   0.00863   0.04027   0.05232   3.11204
   D12        0.02862  -0.00149   0.02497  -0.08448  -0.05742  -0.02880
   D13       -0.11950   0.00184   0.00110   0.08958   0.09224  -0.02727
   D14        3.13259  -0.00078   0.01743  -0.03517  -0.01751   3.11508
   D15       -0.04480   0.00215  -0.03854   0.13142   0.09090   0.04610
   D16       -3.09026  -0.00109  -0.02437   0.01322  -0.00465  -3.09492
         Item               Value     Threshold  Converged?
 Maximum Force            0.009465     0.000450     NO 
 RMS     Force            0.003987     0.000300     NO 
 Maximum Displacement     0.159892     0.001800     NO 
 RMS     Displacement     0.048991     0.001200     NO 
 Predicted change in Energy=-3.076667D-03
 Lowest energy point so far.  Saving SCF results.
 GradGradGradGradGradGradGradGradGradGradGradGradGradGradGradGradGradGrad

 Leave Link  103 at Sat Mar 12 18:40:38 2016, MaxMem=    33554432 cpu:         0.0
 (Enter /opt/g09/g09/l202.exe)
                          Input orientation:                          
 ---------------------------------------------------------------------
 Center     Atomic      Atomic             Coordinates (Angstroms)
 Number     Number       Type             X           Y           Z
 ---------------------------------------------------------------------
      1          6           0       -2.303307    1.688961    0.154235
      2          1           0       -3.120117    2.383474    0.048782
      3          6           0       -2.034714    0.427223   -0.279399
      4          1           0       -2.660975   -0.186304   -0.908191
      5          6           0       -0.757001    0.065519    0.263188
      6          1           0       -0.241467   -0.871235    0.119264
      7          6           0       -0.324856    1.128888    0.994393
      8          1           0        0.537389    1.348083    1.601959
      9          8           0       -1.245196    2.162060    0.914162
 ---------------------------------------------------------------------
                    Distance matrix (angstroms):
                    1          2          3          4          5
     1  C    0.000000
     2  H    1.077333   0.000000
     3  C    1.360943   2.261133   0.000000
     4  H    2.184788   2.780354   1.078888   0.000000
     5  C    2.244659   3.317107   1.434496   2.249591   0.000000
     6  H    3.287402   4.345656   2.249591   2.716397   1.078888
     7  C    2.221220   3.206502   2.244659   3.287402   1.360943
     8  H    3.206502   4.106305   3.317107   4.345656   2.261133
     9  O    1.385969   2.076832   2.248908   3.292448   2.248908
                    6          7          8          9
     6  H    0.000000
     7  C    2.184788   0.000000
     8  H    2.780354   1.077333   0.000000
     9  O    3.292448   1.385969   2.076832   0.000000
 Stoichiometry    C4H4O
 Framework group  CS[SG(O),X(C4H4)]
 Deg. of freedom    11
 Full point group                 CS      NOp   2
 RotChk:  IX=0 Diff= 4.10D-02
 Largest Abelian subgroup         CS      NOp   2
 Largest concise Abelian subgroup CS      NOp   2
                         Standard orientation:                         
 ---------------------------------------------------------------------
 Center     Atomic      Atomic             Coordinates (Angstroms)
 Number     Number       Type             X           Y           Z
 ---------------------------------------------------------------------
      1          6           0       -0.006995   -0.341856    1.110610
      2          1           0       -0.029216   -0.863169    2.053152
      3          6           0       -0.006995    0.960999    0.717248
      4          1           0       -0.008973    1.828856    1.358199
      5          6           0       -0.006995    0.960999   -0.717248
      6          1           0       -0.008973    1.828856   -1.358199
      7          6           0       -0.006995   -0.341856   -1.110610
      8          1           0       -0.029216   -0.863169   -2.053152
      9          8           0        0.030533   -1.170136    0.000000
 ---------------------------------------------------------------------
 Rotational constants (GHZ):      9.3284758      9.1755787      4.6266508
 Leave Link  202 at Sat Mar 12 18:40:38 2016, MaxMem=    33554432 cpu:         0.0
 (Enter /opt/g09/g09/l301.exe)
 Standard basis: 3-21G (6D, 7F)
 Ernie: Thresh=  0.10000D-02 Tol=  0.10000D-05 Strict=F.
 There are    29 symmetry adapted cartesian basis functions of A'  symmetry.
 There are    24 symmetry adapted cartesian basis functions of A"  symmetry.
 There are    29 symmetry adapted basis functions of A'  symmetry.
 There are    24 symmetry adapted basis functions of A"  symmetry.
    53 basis functions,    87 primitive gaussians,    53 cartesian basis functions
    18 alpha electrons       18 beta electrons
       nuclear repulsion energy       159.8100143085 Hartrees.
 IExCor=  402 DFT=T Ex+Corr=B3LYP ExCW=0 ScaHFX=  0.200000
 ScaDFX=  0.800000  0.720000  1.000000  0.810000 ScalE2=  1.000000  1.000000
 IRadAn=      0 IRanWt=     -1 IRanGd=            0 ICorTp=0 IEmpDi=  4
 NAtoms=    9 NActive=    9 NUniq=    5 SFac= 3.24D+00 NAtFMM=   60 NAOKFM=F Big=F
 Integral buffers will be    131072 words long.
 Raffenetti 2 integral format.
 Two-electron integral symmetry is turned on.
 Leave Link  301 at Sat Mar 12 18:40:38 2016, MaxMem=    33554432 cpu:         0.0
 (Enter /opt/g09/g09/l302.exe)
 NPDir=0 NMtPBC=     1 NCelOv=     1 NCel=       1 NClECP=     1 NCelD=      1
         NCelK=      1 NCelE2=     1 NClLst=     1 CellRange=     0.0.
 One-electron integrals computed using PRISM.
 One-electron integral symmetry used in STVInt
 NBasis=    53 RedAO= T EigKep=  2.31D-03  NBF=    29    24
 NBsUse=    53 1.00D-06 EigRej= -1.00D+00 NBFU=    29    24
 Precomputing XC quadrature grid using
 IXCGrd= 4 IRadAn=           0 IRanWt=          -1 IRanGd=           0 AccXCQ= 0.00D+00.
 Generated NRdTot=       0 NPtTot=           0 NUsed=           0 NTot=          32
 NSgBfM=    53    53    53    53    53 MxSgAt=     9 MxSgA2=     9.
 Leave Link  302 at Sat Mar 12 18:40:38 2016, MaxMem=    33554432 cpu:         0.1
 (Enter /opt/g09/g09/l303.exe)
 DipDrv:  MaxL=1.
 Leave Link  303 at Sat Mar 12 18:40:38 2016, MaxMem=    33554432 cpu:         0.0
 (Enter /opt/g09/g09/l401.exe)
 Initial guess from the checkpoint file:  "/opt/g09/scratch/Gau-16429.chk"
 B after Tr=     0.000000    0.000000    0.000000
         Rot=    0.999894    0.000000    0.000000   -0.014556 Ang=  -1.67 deg.
 Guess basis will be translated and rotated to current coordinates.
 JPrj=2 DoOrth=T DoCkMO=T.
 Initial guess orbital symmetries:
       Occupied  (A') (A") (A') (A") (A') (A') (A') (A") (A") (A')
                 (A') (A") (A') (A") (A') (A') (A') (A")
       Virtual   (A') (A') (A') (A') (A') (A') (A') (A') (A') (A')
                 (A') (A') (A') (A') (A') (A') (A') (A') (A") (A")
                 (A") (A") (A") (A") (A") (A") (A") (A") (A") (A")
                 (A") (A") (A") (A") (A")
 The electronic state of the initial guess is 1-A'.
 Generating alternative initial guess.
 ExpMin= 1.83D-01 ExpMax= 3.22D+02 ExpMxC= 3.22D+02 IAcc=1 IRadAn=         1 AccDes= 0.00D+00
 Harris functional with IExCor=  402 and IRadAn=       1 diagonalized for initial guess.
 HarFok:  IExCor=  402 AccDes= 0.00D+00 IRadAn=         1 IDoV= 1 UseB2=F ITyADJ=14
 ICtDFT=  3500011 ScaDFX=  1.000000  1.000000  1.000000  1.000000
 FoFCou: FMM=F IPFlag=           0 FMFlag=      100000 FMFlg1=           0
         NFxFlg=           0 DoJE=T BraDBF=F KetDBF=T FulRan=T
         wScrn=  0.000000 ICntrl=     500 IOpCl=  0 I1Cent=   200000004 NGrid=           0
         NMat0=    1 NMatS0=      1 NMatT0=    0 NMatD0=    1 NMtDS0=    0 NMtDT0=    0
 Petite list used in FoFCou.
 Harris En= -228.740214944358    
 Leave Link  401 at Sat Mar 12 18:40:38 2016, MaxMem=    33554432 cpu:         0.1
 (Enter /opt/g09/g09/l502.exe)
 Closed shell SCF:
 Using DIIS extrapolation, IDIIS=  1040.
 Integral symmetry usage will be decided dynamically.
 Keep R1 ints in memory in symmetry-blocked form, NReq=1928962.
 IVT=       27787 IEndB=       27787 NGot=    33554432 MDV=    33010323
 LenX=    33010323 LenY=    33007073
 Requested convergence on RMS density matrix=1.00D-08 within 128 cycles.
 Requested convergence on MAX density matrix=1.00D-06.
 Requested convergence on             energy=1.00D-06.
 No special actions if energy rises.
 FoFCou: FMM=F IPFlag=           0 FMFlag=           0 FMFlg1=           0
         NFxFlg=           0 DoJE=F BraDBF=F KetDBF=F FulRan=T
         wScrn=  0.000000 ICntrl=     600 IOpCl=  0 I1Cent=           0 NGrid=           0
         NMat0=    1 NMatS0=   1431 NMatT0=    0 NMatD0=    1 NMtDS0=    0 NMtDT0=    0
 Petite list used in FoFCou.
 Integral accuracy reduced to 1.0D-05 until final iterations.

 Cycle   1  Pass 0  IDiag  1:
 E= -228.748528336026    
 DIIS: error= 6.03D-03 at cycle   1 NSaved=   1.
 NSaved= 1 IEnMin= 1 EnMin= -228.748528336026     IErMin= 1 ErrMin= 6.03D-03
 ErrMax= 6.03D-03  0.00D+00 EMaxC= 1.00D-01 BMatC= 2.88D-03 BMatP= 2.88D-03
 IDIUse=3 WtCom= 9.40D-01 WtEn= 6.03D-02
 Coeff-Com:  0.100D+01
 Coeff-En:   0.100D+01
 Coeff:      0.100D+01
 Gap=     0.816 Goal=   None    Shift=    0.000
 GapD=    0.816 DampG=2.000 DampE=1.000 DampFc=2.0000 IDamp=-1.
 RMSDP=1.87D-03 MaxDP=1.06D-02              OVMax= 1.94D-02

 Cycle   2  Pass 0  IDiag  1:
 E= -228.752236442622     Delta-E=       -0.003708106597 Rises=F Damp=F
 DIIS: error= 3.54D-03 at cycle   2 NSaved=   2.
 NSaved= 2 IEnMin= 2 EnMin= -228.752236442622     IErMin= 2 ErrMin= 3.54D-03
 ErrMax= 3.54D-03  0.00D+00 EMaxC= 1.00D-01 BMatC= 3.24D-04 BMatP= 2.88D-03
 IDIUse=3 WtCom= 9.65D-01 WtEn= 3.54D-02
 Coeff-Com:  0.117D+00 0.883D+00
 Coeff-En:   0.000D+00 0.100D+01
 Coeff:      0.113D+00 0.887D+00
 Gap=     0.252 Goal=   None    Shift=    0.000
 RMSDP=6.49D-04 MaxDP=8.09D-03 DE=-3.71D-03 OVMax= 1.50D-02

 Cycle   3  Pass 0  IDiag  1:
 E= -228.751926732012     Delta-E=        0.000309710611 Rises=F Damp=F
 DIIS: error= 5.02D-03 at cycle   3 NSaved=   3.
 NSaved= 3 IEnMin= 2 EnMin= -228.752236442622     IErMin= 2 ErrMin= 3.54D-03
 ErrMax= 5.02D-03  0.00D+00 EMaxC= 1.00D-01 BMatC= 7.88D-04 BMatP= 3.24D-04
 IDIUse=3 WtCom= 1.24D-01 WtEn= 8.76D-01
 Coeff-Com: -0.249D-01 0.622D+00 0.402D+00
 Coeff-En:   0.000D+00 0.657D+00 0.343D+00
 Coeff:     -0.308D-02 0.653D+00 0.350D+00
 Gap=     0.250 Goal=   None    Shift=    0.000
 RMSDP=3.74D-04 MaxDP=4.00D-03 DE= 3.10D-04 OVMax= 7.52D-03

 Cycle   4  Pass 0  IDiag  1:
 E= -228.752488313349     Delta-E=       -0.000561581338 Rises=F Damp=F
 DIIS: error= 6.03D-04 at cycle   4 NSaved=   4.
 NSaved= 4 IEnMin= 4 EnMin= -228.752488313349     IErMin= 4 ErrMin= 6.03D-04
 ErrMax= 6.03D-04  0.00D+00 EMaxC= 1.00D-01 BMatC= 1.31D-05 BMatP= 3.24D-04
 IDIUse=3 WtCom= 9.94D-01 WtEn= 6.03D-03
 Coeff-Com: -0.145D-01 0.276D+00 0.115D+00 0.623D+00
 Coeff-En:   0.000D+00 0.000D+00 0.000D+00 0.100D+01
 Coeff:     -0.145D-01 0.275D+00 0.114D+00 0.625D+00
 Gap=     0.250 Goal=   None    Shift=    0.000
 RMSDP=6.72D-05 MaxDP=6.46D-04 DE=-5.62D-04 OVMax= 1.14D-03

 Cycle   5  Pass 0  IDiag  1:
 E= -228.752496952889     Delta-E=       -0.000008639539 Rises=F Damp=F
 DIIS: error= 2.80D-04 at cycle   5 NSaved=   5.
 NSaved= 5 IEnMin= 5 EnMin= -228.752496952889     IErMin= 5 ErrMin= 2.80D-04
 ErrMax= 2.80D-04  0.00D+00 EMaxC= 1.00D-01 BMatC= 1.65D-06 BMatP= 1.31D-05
 IDIUse=3 WtCom= 9.97D-01 WtEn= 2.80D-03
 Coeff-Com: -0.303D-02 0.331D-01-0.219D-01 0.365D+00 0.626D+00
 Coeff-En:   0.000D+00 0.000D+00 0.000D+00 0.398D-01 0.960D+00
 Coeff:     -0.302D-02 0.330D-01-0.218D-01 0.365D+00 0.627D+00
 Gap=     0.250 Goal=   None    Shift=    0.000
 RMSDP=2.99D-05 MaxDP=2.22D-04 DE=-8.64D-06 OVMax= 7.15D-04

 Cycle   6  Pass 0  IDiag  1:
 E= -228.752498693364     Delta-E=       -0.000001740476 Rises=F Damp=F
 DIIS: error= 3.66D-05 at cycle   6 NSaved=   6.
 NSaved= 6 IEnMin= 6 EnMin= -228.752498693364     IErMin= 6 ErrMin= 3.66D-05
 ErrMax= 3.66D-05  0.00D+00 EMaxC= 1.00D-01 BMatC= 6.47D-08 BMatP= 1.65D-06
 IDIUse=1 WtCom= 1.00D+00 WtEn= 0.00D+00
 Coeff-Com: -0.217D-03-0.415D-02-0.190D-01 0.123D+00 0.282D+00 0.619D+00
 Coeff:     -0.217D-03-0.415D-02-0.190D-01 0.123D+00 0.282D+00 0.619D+00
 Gap=     0.250 Goal=   None    Shift=    0.000
 RMSDP=5.87D-06 MaxDP=5.12D-05 DE=-1.74D-06 OVMax= 7.97D-05

 Initial convergence to 1.0D-05 achieved.  Increase integral accuracy.
 Cycle   7  Pass 1  IDiag  1:
 E= -228.752559630468     Delta-E=       -0.000060937103 Rises=F Damp=F
 DIIS: error= 1.84D-05 at cycle   1 NSaved=   1.
 NSaved= 1 IEnMin= 1 EnMin= -228.752559630468     IErMin= 1 ErrMin= 1.84D-05
 ErrMax= 1.84D-05  0.00D+00 EMaxC= 1.00D-01 BMatC= 1.27D-08 BMatP= 1.27D-08
 IDIUse=1 WtCom= 1.00D+00 WtEn= 0.00D+00
 Coeff-Com:  0.100D+01
 Coeff:      0.100D+01
 Gap=     0.250 Goal=   None    Shift=    0.000
 RMSDP=5.87D-06 MaxDP=5.12D-05 DE=-6.09D-05 OVMax= 4.19D-05

 Cycle   8  Pass 1  IDiag  1:
 E= -228.752559646186     Delta-E=       -0.000000015719 Rises=F Damp=F
 DIIS: error= 7.72D-06 at cycle   2 NSaved=   2.
 NSaved= 2 IEnMin= 2 EnMin= -228.752559646186     IErMin= 2 ErrMin= 7.72D-06
 ErrMax= 7.72D-06  0.00D+00 EMaxC= 1.00D-01 BMatC= 1.60D-09 BMatP= 1.27D-08
 IDIUse=1 WtCom= 1.00D+00 WtEn= 0.00D+00
 Coeff-Com:  0.139D+00 0.861D+00
 Coeff:      0.139D+00 0.861D+00
 Gap=     0.250 Goal=   None    Shift=    0.000
 RMSDP=2.11D-06 MaxDP=1.42D-05 DE=-1.57D-08 OVMax= 4.86D-05

 Cycle   9  Pass 1  IDiag  1:
 E= -228.752559643609     Delta-E=        0.000000002578 Rises=F Damp=F
 DIIS: error= 1.24D-05 at cycle   3 NSaved=   3.
 NSaved= 3 IEnMin= 2 EnMin= -228.752559646186     IErMin= 2 ErrMin= 7.72D-06
 ErrMax= 1.24D-05  0.00D+00 EMaxC= 1.00D-01 BMatC= 4.51D-09 BMatP= 1.60D-09
 IDIUse=1 WtCom= 1.00D+00 WtEn= 0.00D+00
 Coeff-Com: -0.173D-01 0.636D+00 0.381D+00
 Coeff:     -0.173D-01 0.636D+00 0.381D+00
 Gap=     0.250 Goal=   None    Shift=    0.000
 RMSDP=1.25D-06 MaxDP=1.11D-05 DE= 2.58D-09 OVMax= 2.74D-05

 Cycle  10  Pass 1  IDiag  1:
 E= -228.752559647848     Delta-E=       -0.000000004239 Rises=F Damp=F
 DIIS: error= 4.79D-07 at cycle   4 NSaved=   4.
 NSaved= 4 IEnMin= 4 EnMin= -228.752559647848     IErMin= 4 ErrMin= 4.79D-07
 ErrMax= 4.79D-07  0.00D+00 EMaxC= 1.00D-01 BMatC= 1.56D-11 BMatP= 1.60D-09
 IDIUse=1 WtCom= 1.00D+00 WtEn= 0.00D+00
 Coeff-Com: -0.881D-02 0.251D+00 0.150D+00 0.608D+00
 Coeff:     -0.881D-02 0.251D+00 0.150D+00 0.608D+00
 Gap=     0.250 Goal=   None    Shift=    0.000
 RMSDP=1.15D-07 MaxDP=1.19D-06 DE=-4.24D-09 OVMax= 1.84D-06

 Cycle  11  Pass 1  IDiag  1:
 E= -228.752559647862     Delta-E=       -0.000000000015 Rises=F Damp=F
 DIIS: error= 2.85D-07 at cycle   5 NSaved=   5.
 NSaved= 5 IEnMin= 5 EnMin= -228.752559647862     IErMin= 5 ErrMin= 2.85D-07
 ErrMax= 2.85D-07  0.00D+00 EMaxC= 1.00D-01 BMatC= 3.40D-12 BMatP= 1.56D-11
 IDIUse=1 WtCom= 1.00D+00 WtEn= 0.00D+00
 Coeff-Com: -0.365D-02 0.607D-01 0.363D-01 0.326D+00 0.581D+00
 Coeff:     -0.365D-02 0.607D-01 0.363D-01 0.326D+00 0.581D+00
 Gap=     0.250 Goal=   None    Shift=    0.000
 RMSDP=2.97D-08 MaxDP=2.60D-07 DE=-1.47D-11 OVMax= 5.50D-07

 Cycle  12  Pass 1  IDiag  1:
 E= -228.752559647865     Delta-E=       -0.000000000002 Rises=F Damp=F
 DIIS: error= 6.10D-08 at cycle   6 NSaved=   6.
 NSaved= 6 IEnMin= 6 EnMin= -228.752559647865     IErMin= 6 ErrMin= 6.10D-08
 ErrMax= 6.10D-08  0.00D+00 EMaxC= 1.00D-01 BMatC= 2.07D-13 BMatP= 3.40D-12
 IDIUse=1 WtCom= 1.00D+00 WtEn= 0.00D+00
 Coeff-Com: -0.935D-03 0.108D-01 0.649D-02 0.106D+00 0.266D+00 0.612D+00
 Coeff:     -0.935D-03 0.108D-01 0.649D-02 0.106D+00 0.266D+00 0.612D+00
 Gap=     0.250 Goal=   None    Shift=    0.000
 RMSDP=9.50D-09 MaxDP=9.42D-08 DE=-2.22D-12 OVMax= 1.65D-07

 SCF Done:  E(RB3LYP) =  -228.752559648     A.U. after   12 cycles
            NFock= 12  Conv=0.95D-08     -V/T= 2.0087
 KE= 2.267718763495D+02 PE=-8.521742330610D+02 EE= 2.368397827552D+02
 Leave Link  502 at Sat Mar 12 18:40:40 2016, MaxMem=    33554432 cpu:         1.5
 (Enter /opt/g09/g09/l701.exe)
 Compute integral first derivatives.
 ... and contract with generalized density number  0.
 Leave Link  701 at Sat Mar 12 18:40:40 2016, MaxMem=    33554432 cpu:         0.0
 (Enter /opt/g09/g09/l702.exe)
 L702 exits ... SP integral derivatives will be done elsewhere.
 Leave Link  702 at Sat Mar 12 18:40:40 2016, MaxMem=    33554432 cpu:         0.0
 (Enter /opt/g09/g09/l703.exe)
 Compute integral first derivatives, UseDBF=F ICtDFT=           0.
 Integral derivatives from FoFJK, PRISM(SPDF).
 Calling FoFJK, ICntrl=      2127 FMM=F ISym2X=1 I1Cent= 0 IOpClX= 0 NMat=1 NMatS=1 NMatT=0.
 FoFJK:  IHMeth= 1 ICntrl=    2127 DoSepK=F KAlg= 0 I1Cent=   0 FoldK=F
 IRaf=         0 NMat=   1 IRICut=       1 DoRegI=T DoRafI=F ISym2E= 1.
 FoFCou: FMM=F IPFlag=           0 FMFlag=      100000 FMFlg1=         800
         NFxFlg=           0 DoJE=F BraDBF=F KetDBF=F FulRan=T
         wScrn=  0.000000 ICntrl=    2127 IOpCl=  0 I1Cent=           0 NGrid=           0
         NMat0=    1 NMatS0=      1 NMatT0=    0 NMatD0=    1 NMtDS0=    0 NMtDT0=    0
 Petite list used in FoFCou.
 Leave Link  703 at Sat Mar 12 18:40:40 2016, MaxMem=    33554432 cpu:         0.3
 (Enter /opt/g09/g09/l716.exe)
 Dipole        =-2.98575098D-02 3.00996163D-01-6.47042730D-16
 ***** Axes restored to original set *****
 -------------------------------------------------------------------
 Center     Atomic                   Forces (Hartrees/Bohr)
 Number     Number              X              Y              Z
 -------------------------------------------------------------------
      1        6          -0.008867922    0.006270195   -0.006318841
      2        1           0.000396209   -0.003597510   -0.003032253
      3        6          -0.008496597   -0.001764548   -0.004552275
      4        1           0.000557809    0.001028116    0.001551050
      5        6           0.007259787   -0.006224971    0.002138746
      6        1          -0.000910570    0.001443795    0.000927496
      7        6           0.012276984    0.000284353    0.002660440
      8        1           0.000194766   -0.003540484   -0.003117796
      9        8          -0.002410466    0.006101053    0.009743433
 -------------------------------------------------------------------
 Cartesian Forces:  Max     0.012276984 RMS     0.005084206
 Leave Link  716 at Sat Mar 12 18:40:40 2016, MaxMem=    33554432 cpu:         0.0
 (Enter /opt/g09/g09/l103.exe)

 GradGradGradGradGradGradGradGradGradGradGradGradGradGradGradGradGradGrad
 Berny optimization.
 Using GEDIIS/GDIIS optimizer.
 FormGI is forming the generalized inverse of G from B-inverse, IUseBI=4.
 Internal  Forces:  Max     0.011239892 RMS     0.003556572
 Search for a local minimum.
 Step number   3 out of a maximum of   48
 All quantities printed in internal units (Hartrees-Bohrs-Radians)
 RMS Force = .35566D-02 SwitMx=.10000D-02 MixMth= 1
 Mixed Optimization -- RFO/linear search
 Update second derivatives using D2CorX and points    2    3
 DE= -1.07D-03 DEPred=-3.08D-03 R= 3.47D-01
 Trust test= 3.47D-01 RLast= 3.04D-01 DXMaxT set to 5.05D-01
 ITU=  0  1  0
 Use linear search instead of GDIIS.
     Eigenvalues ---    0.01351   0.01820   0.01854   0.02314   0.02400
     Eigenvalues ---    0.04780   0.13551   0.16000   0.16000   0.16011
[...]
         NFxFlg=           0 DoJE=F BraDBF=F KetDBF=F FulRan=T
         wScrn=  0.000000 ICntrl=    2127 IOpCl=  0 I1Cent=           0 NGrid=           0
         NMat0=    1 NMatS0=      1 NMatT0=    0 NMatD0=    1 NMtDS0=    0 NMtDT0=    0
 Petite list used in FoFCou.
 Leave Link  703 at Sat Mar 12 18:40:46 2016, MaxMem=    33554432 cpu:         0.3
 (Enter /opt/g09/g09/l716.exe)
 Dipole        =-8.46004444D-04 3.30345722D-01 1.11659553D-15
 ***** Axes restored to original set *****
 -------------------------------------------------------------------
 Center     Atomic                   Forces (Hartrees/Bohr)
 Number     Number              X              Y              Z
 -------------------------------------------------------------------
      1        6           0.000064017   -0.000016533    0.000108529
      2        1           0.000014661    0.000024150   -0.000044911
      3        6          -0.000012625    0.000024110   -0.000032429
      4        1          -0.000021484    0.000005391    0.000001519
      5        6           0.000040088    0.000009188   -0.000010044
      6        1           0.000014003   -0.000004655    0.000016588
      7        6          -0.000118113    0.000035025    0.000031186
      8        1           0.000032507    0.000019098   -0.000037333
      9        8          -0.000013054   -0.000095774   -0.000033105
 -------------------------------------------------------------------
 Cartesian Forces:  Max     0.000118113 RMS     0.000044280
 Leave Link  716 at Sat Mar 12 18:40:46 2016, MaxMem=    33554432 cpu:         0.0
 (Enter /opt/g09/g09/l103.exe)

 GradGradGradGradGradGradGradGradGradGradGradGradGradGradGradGradGradGrad
 Berny optimization.
 Using GEDIIS/GDIIS optimizer.
 FormGI is forming the generalized inverse of G from B-inverse, IUseBI=4.
 Internal  Forces:  Max     0.000086267 RMS     0.000025965
 Search for a local minimum.
 Step number   6 out of a maximum of   48
 All quantities printed in internal units (Hartrees-Bohrs-Radians)
 RMS Force = .25965D-04 SwitMx=.10000D-02 MixMth= 2
 Mixed Optimization -- En-DIIS/RFO-DIIS
 Swapping is turned off.
 Update second derivatives using D2CorX and points    2    3    4    5    6
 DE= -4.67D-06 DEPred=-4.36D-06 R= 1.07D+00
 TightC=F SS=  1.41D+00  RLast= 1.00D-02 DXNew= 8.4853D-01 3.0028D-02
 Trust test= 1.07D+00 RLast= 1.00D-02 DXMaxT set to 5.05D-01
 ITU=  1  1  1  0  1  0
     Eigenvalues ---    0.01347   0.01546   0.01849   0.01918   0.02375
     Eigenvalues ---    0.05078   0.13599   0.15938   0.16000   0.16000
     Eigenvalues ---    0.22000   0.27396   0.33230   0.36098   0.37199
     Eigenvalues ---    0.37230   0.37230   0.37466   0.43001   0.50677
     Eigenvalues ---    0.56748
 En-DIIS/RFO-DIIS IScMMF=        0 using points:     6    5    4
 RFO step:  Lambda=-7.20196552D-08.
 NNeg= 0 NP= 3 Switch=  2.50D-03 Rises=F DC=  3.82D-05 SmlDif=  1.00D-05
 RMS Error=  0.9402359471D-04 NUsed= 3 EDIIS=F
 DidBck=F Rises=F RFO-DIIS coefs:    1.11573   -0.09939   -0.01634
 Iteration  1 RMS(Cart)=  0.00048036 RMS(Int)=  0.00000059
 Iteration  2 RMS(Cart)=  0.00000036 RMS(Int)=  0.00000045
 ITry= 1 IFail=0 DXMaxC= 1.30D-03 DCOld= 1.00D+10 DXMaxT= 5.05D-01 DXLimC= 3.00D+00 Rises=F
 ClnCor:  largest displacement from symmetrization is 8.06D-09 for atom     6.
 Variable       Old X    -DE/DX   Delta X   Delta X   Delta X     New X
                                 (Linear)    (Quad)   (Total)
    R1        2.02978   0.00001   0.00005  -0.00003   0.00002   2.02980
    R2        2.57272  -0.00002  -0.00010   0.00007  -0.00003   2.57269
    R3        2.64770  -0.00009  -0.00005  -0.00021  -0.00026   2.64744
    R4        2.03428   0.00001   0.00003   0.00000   0.00002   2.03430
    R5        2.73340   0.00003  -0.00004   0.00010   0.00006   2.73345
    R6        2.03428   0.00001   0.00003   0.00000   0.00002   2.03430
    R7        2.57272  -0.00002  -0.00010   0.00007  -0.00003   2.57269
    R8        2.02978   0.00001   0.00005  -0.00003   0.00002   2.02980
    R9        2.64770  -0.00009  -0.00005  -0.00021  -0.00026   2.64744
    A1        2.33956  -0.00001  -0.00001  -0.00004  -0.00005   2.33951
    A2        2.02402  -0.00001   0.00009  -0.00009   0.00000   2.02401
    A3        1.91961   0.00002  -0.00008   0.00014   0.00006   1.91967
    A4        2.20931  -0.00001  -0.00007  -0.00004  -0.00011   2.20919
    A5        1.86653  -0.00003   0.00003  -0.00011  -0.00008   1.86645
    A6        2.20735   0.00003   0.00004   0.00015   0.00020   2.20754
    A7        2.20735   0.00003   0.00004   0.00015   0.00020   2.20754
    A8        1.86653  -0.00003   0.00003  -0.00011  -0.00008   1.86645
    A9        2.20931  -0.00001  -0.00007  -0.00004  -0.00011   2.20919
   A10        2.33956  -0.00001  -0.00001  -0.00004  -0.00005   2.33951
   A11        1.91961   0.00002  -0.00008   0.00014   0.00006   1.91967
   A12        2.02402  -0.00001   0.00009  -0.00009   0.00000   2.02401
   A13        1.85250   0.00002   0.00009  -0.00005   0.00004   1.85254
    D1        0.00175  -0.00003  -0.00072  -0.00093  -0.00165   0.00010
    D2       -3.13998  -0.00003  -0.00037  -0.00145  -0.00182   3.14139
    D3       -3.14151   0.00000  -0.00017   0.00037   0.00020  -3.14132
    D4       -0.00005   0.00000   0.00019  -0.00016   0.00003  -0.00003
    D5        3.14034   0.00003   0.00015   0.00129   0.00144  -3.14141
    D6        0.00009   0.00000  -0.00030   0.00025  -0.00004   0.00004
    D7       -3.14146   0.00001  -0.00035   0.00052   0.00017  -3.14129
    D8        0.00000   0.00000   0.00000   0.00000   0.00000   0.00000
    D9        0.00000   0.00000   0.00000   0.00000   0.00000   0.00000
   D10        3.14146  -0.00001   0.00035  -0.00052  -0.00017   3.14129
   D11        3.13998   0.00003   0.00037   0.00145   0.00182  -3.14139
   D12        0.00005   0.00000  -0.00019   0.00016  -0.00003   0.00003
   D13       -0.00175   0.00003   0.00072   0.00093   0.00165  -0.00010
   D14        3.14151   0.00000   0.00017  -0.00037  -0.00020   3.14132
   D15       -0.00009   0.00000   0.00030  -0.00025   0.00004  -0.00004
   D16       -3.14034  -0.00003  -0.00015  -0.00129  -0.00144   3.14141
         Item               Value     Threshold  Converged?
 Maximum Force            0.000086     0.000450     YES
 RMS     Force            0.000026     0.000300     YES
 Maximum Displacement     0.001301     0.001800     YES
 RMS     Displacement     0.000480     0.001200     YES
 Predicted change in Energy=-1.679323D-07
 Optimization completed.
    -- Stationary point found.
                           ----------------------------
                           !   Optimized Parameters   !
                           ! (Angstroms and Degrees)  !
 --------------------------                            --------------------------
 ! Name  Definition              Value          Derivative Info.                !
 --------------------------------------------------------------------------------
 ! R1    R(1,2)                  1.0741         -DE/DX =    0.0                 !
 ! R2    R(1,3)                  1.3614         -DE/DX =    0.0                 !
 ! R3    R(1,9)                  1.4011         -DE/DX =   -0.0001              !
 ! R4    R(3,4)                  1.0765         -DE/DX =    0.0                 !
 ! R5    R(3,5)                  1.4465         -DE/DX =    0.0                 !
 ! R6    R(5,6)                  1.0765         -DE/DX =    0.0                 !
 ! R7    R(5,7)                  1.3614         -DE/DX =    0.0                 !
 ! R8    R(7,8)                  1.0741         -DE/DX =    0.0                 !
 ! R9    R(7,9)                  1.4011         -DE/DX =   -0.0001              !
 ! A1    A(2,1,3)              134.0471         -DE/DX =    0.0                 !
 ! A2    A(2,1,9)              115.9675         -DE/DX =    0.0                 !
 ! A3    A(3,1,9)              109.9853         -DE/DX =    0.0                 !
 ! A4    A(1,3,4)              126.584          -DE/DX =    0.0                 !
 ! A5    A(1,3,5)              106.9444         -DE/DX =    0.0                 !
 ! A6    A(4,3,5)              126.4716         -DE/DX =    0.0                 !
 ! A7    A(3,5,6)              126.4716         -DE/DX =    0.0                 !
 ! A8    A(3,5,7)              106.9444         -DE/DX =    0.0                 !
 ! A9    A(6,5,7)              126.584          -DE/DX =    0.0                 !
 ! A10   A(5,7,8)              134.0471         -DE/DX =    0.0                 !
 ! A11   A(5,7,9)              109.9853         -DE/DX =    0.0                 !
 ! A12   A(8,7,9)              115.9675         -DE/DX =    0.0                 !
 ! A13   A(1,9,7)              106.1405         -DE/DX =    0.0                 !
 ! D1    D(2,1,3,4)              0.1002         -DE/DX =    0.0                 !
 ! D2    D(2,1,3,5)            180.0926         -DE/DX =    0.0                 !
 ! D3    D(9,1,3,4)           -179.9955         -DE/DX =    0.0                 !
 ! D4    D(9,1,3,5)             -0.0031         -DE/DX =    0.0                 !
 ! D5    D(2,1,9,7)           -180.0716         -DE/DX =    0.0                 !
 ! D6    D(3,1,9,7)              0.0049         -DE/DX =    0.0                 !
 ! D7    D(1,3,5,6)           -179.9924         -DE/DX =    0.0                 !
 ! D8    D(1,3,5,7)              0.0            -DE/DX =    0.0                 !
 ! D9    D(4,3,5,6)              0.0            -DE/DX =    0.0                 !
 ! D10   D(4,3,5,7)            179.9924         -DE/DX =    0.0                 !
 ! D11   D(3,5,7,8)           -180.0926         -DE/DX =    0.0                 !
 ! D12   D(3,5,7,9)              0.0031         -DE/DX =    0.0                 !
 ! D13   D(6,5,7,8)             -0.1002         -DE/DX =    0.0                 !
 ! D14   D(6,5,7,9)            179.9955         -DE/DX =    0.0                 !
 ! D15   D(5,7,9,1)             -0.0049         -DE/DX =    0.0                 !
 ! D16   D(8,7,9,1)            180.0716         -DE/DX =    0.0                 !
 --------------------------------------------------------------------------------
 Lowest energy point so far.  Saving SCF results.
 GradGradGradGradGradGradGradGradGradGradGradGradGradGradGradGradGradGrad

 Largest change from initial coordinates is atom    2       0.157 Angstoms.
 Leave Link  103 at Sat Mar 12 18:40:46 2016, MaxMem=    33554432 cpu:         0.0
 (Enter /opt/g09/g09/l202.exe)
                          Input orientation:                          
 ---------------------------------------------------------------------
 Center     Atomic      Atomic             Coordinates (Angstroms)
 Number     Number       Type             X           Y           Z
 ---------------------------------------------------------------------
      1          6           0       -2.311449    1.695612    0.153003
      2          1           0       -3.132659    2.373142    0.010572
      3          6           0       -2.040573    0.432825   -0.277670
      4          1           0       -2.665340   -0.178666   -0.905827
      5          6           0       -0.752212    0.068107    0.269438
      6          1           0       -0.237068   -0.866077    0.125350
      7          6           0       -0.316261    1.130800    1.000269
      8          1           0        0.565852    1.326143    1.581162
      9          8           0       -1.260534    2.164784    0.952096
 ---------------------------------------------------------------------
                    Distance matrix (angstroms):
                    1          2          3          4          5
     1  C    0.000000
     2  H    1.074113   0.000000
     3  C    1.361427   2.245120   0.000000
     4  H    2.181576   2.751344   1.076492   0.000000
     5  C    2.256889   3.323661   1.446451   2.258806   0.000000
     6  H    3.296373   4.346281   2.258806   2.726237   1.076492
     7  C    2.240011   3.233421   2.256889   3.296373   1.361427
     8  H    3.233421   4.152341   3.323661   4.346281   2.245120
     9  O    1.401105   2.105880   2.262845   3.304105   2.262845
                    6          7          8          9
     6  H    0.000000
     7  C    2.181576   0.000000
     8  H    2.751344   1.074113   0.000000
     9  O    3.304105   1.401105   2.105880   0.000000
 Stoichiometry    C4H4O
 Framework group  CS[SG(O),X(C4H4)]
 Deg. of freedom    11
 Full point group                 CS      NOp   2
 RotChk:  IX=0 Diff= 1.02D-15
 Largest Abelian subgroup         CS      NOp   2
 Largest concise Abelian subgroup CS      NOp   2
                         Standard orientation:                         
 ---------------------------------------------------------------------
 Center     Atomic      Atomic             Coordinates (Angstroms)
 Number     Number       Type             X           Y           Z
 ---------------------------------------------------------------------
      1          6           0        0.000079   -0.340292    1.120006
      2          1           0       -0.001169   -0.829643    2.076171
      3          6           0        0.000079    0.962033    0.723225
      4          1           0        0.000193    1.827696    1.363118
      5          6           0        0.000079    0.962033   -0.723225
      6          1           0        0.000193    1.827696   -1.363118
      7          6           0        0.000079   -0.340292   -1.120006
      8          1           0       -0.001169   -0.829643   -2.076171
      9          8           0        0.000008   -1.182125    0.000000
 ---------------------------------------------------------------------
 Rotational constants (GHZ):      9.1732122      9.1213395      4.5736014
 Leave Link  202 at Sat Mar 12 18:40:46 2016, MaxMem=    33554432 cpu:         0.0
 (Enter /opt/g09/g09/l601.exe)
 Copying SCF densities to generalized density rwf, IOpCl= 0 IROHF=0.

 **********************************************************************

            Population analysis using the SCF density.

 **********************************************************************

 Orbital symmetries:
       Occupied  (A') (A") (A') (A") (A') (A') (A') (A") (A") (A')
                 (A') (A") (A') (A") (A') (A') (A') (A")
       Virtual   (A') (A") (A') (A') (A") (A") (A") (A') (A') (A")
                 (A") (A') (A") (A') (A') (A") (A') (A") (A') (A")
                 (A') (A") (A") (A') (A") (A') (A") (A') (A') (A")
                 (A') (A') (A") (A") (A')
 The electronic state is 1-A'.
 Alpha  occ. eigenvalues --  -19.10737 -10.17772 -10.17724 -10.12907 -10.12790
 Alpha  occ. eigenvalues --   -1.10011  -0.80130  -0.74258  -0.59397  -0.57434
 Alpha  occ. eigenvalues --   -0.53827  -0.44448  -0.43311  -0.42061  -0.40055
 Alpha  occ. eigenvalues --   -0.35988  -0.27559  -0.23353
 Alpha virt. eigenvalues --    0.01509   0.07831   0.13053   0.14236   0.16965
 Alpha virt. eigenvalues --    0.18729   0.20475   0.21874   0.35193   0.41110
 Alpha virt. eigenvalues --    0.45891   0.67919   0.69942   0.70135   0.74554
 Alpha virt. eigenvalues --    0.77017   0.79044   0.80353   0.80445   0.83698
 Alpha virt. eigenvalues --    0.92726   0.98796   1.01390   1.02828   1.18184
 Alpha virt. eigenvalues --    1.22465   1.33632   1.36366   1.50150   1.56666
 Alpha virt. eigenvalues --    1.62794   1.73878   1.95577   2.12198   3.14138
          Condensed to atoms (all electrons):
               1          2          3          4          5          6
     1  C    5.082533   0.384902   0.457185  -0.028144  -0.127455   0.004672
     2  H    0.384902   0.452825  -0.038120  -0.000354   0.002727  -0.000027
     3  C    0.457185  -0.038120   5.241906   0.379836   0.432734  -0.026123
     4  H   -0.028144  -0.000354   0.379836   0.478778  -0.026123  -0.000905
     5  C   -0.127455   0.002727   0.432734  -0.026123   5.241906   0.379836
     6  H    0.004672  -0.000027  -0.026123  -0.000905   0.379836   0.478778
     7  C   -0.141668   0.003510  -0.127455   0.004672   0.457185  -0.028144
     8  H    0.003510  -0.000046   0.002727  -0.000027  -0.038120  -0.000354
     9  O    0.288801  -0.025025  -0.072789   0.001851  -0.072789   0.001851
               7          8          9
     1  C   -0.141668   0.003510   0.288801
     2  H    0.003510  -0.000046  -0.025025
     3  C   -0.127455   0.002727  -0.072789
     4  H    0.004672  -0.000027   0.001851
     5  C    0.457185  -0.038120  -0.072789
     6  H   -0.028144  -0.000354   0.001851
     7  C    5.082533   0.384902   0.288801
     8  H    0.384902   0.452825  -0.025025
     9  O    0.288801  -0.025025   8.085899
 Mulliken charges:
               1
     1  C    0.075664
     2  H    0.219608
     3  C   -0.249900
     4  H    0.190416
     5  C   -0.249900
     6  H    0.190416
     7  C    0.075664
     8  H    0.219608
     9  O   -0.471575
 Sum of Mulliken charges =   0.00000
 Mulliken charges with hydrogens summed into heavy atoms:
               1
     1  C    0.295271
     3  C   -0.059484
     5  C   -0.059484
     7  C    0.295271
     9  O   -0.471575
 Electronic spatial extent (au):  <R**2>=            295.4963
 Charge=              0.0000 electrons
 Dipole moment (field-independent basis, Debye):
    X=             -0.0022    Y=              0.8397    Z=              0.0000  Tot=              0.8397
 Quadrupole moment (field-independent basis, Debye-Ang):
   XX=            -31.9159   YY=            -28.1592   ZZ=            -23.2512
   XY=              0.0027   XZ=              0.0000   YZ=              0.0000
 Traceless Quadrupole moment (field-independent basis, Debye-Ang):
   XX=             -4.1405   YY=             -0.3838   ZZ=              4.5242
   XY=              0.0027   XZ=              0.0000   YZ=              0.0000
 Octapole moment (field-independent basis, Debye-Ang**2):
  XXX=             -0.0028  YYY=              2.4870  ZZZ=              0.0000  XYY=             -0.0013
  XXY=             -3.4243  XXZ=              0.0000  XZZ=             -0.0132  YZZ=             -4.5547
  YYZ=              0.0000  XYZ=              0.0000
 Hexadecapole moment (field-independent basis, Debye-Ang**3):
 XXXX=            -31.0044 YYYY=           -160.1850 ZZZZ=           -158.7345 XXXY=             -0.0063
 XXXZ=              0.0000 YYYX=             -0.0022 YYYZ=              0.0000 ZZZX=              0.0000
 ZZZY=              0.0000 XXYY=            -34.8955 XXZZ=            -40.0980 YYZZ=            -46.3822
 XXYZ=              0.0000 YYXZ=              0.0000 ZZXY=              0.0100
 N-N= 1.589458464920D+02 E-N=-8.504218780515D+02  KE= 2.266895930755D+02
 Symmetry A'   KE= 1.484743834111D+02
 Symmetry A"   KE= 7.821520966431D+01
 No NMR shielding tensors so no spin-rotation constants.
 Leave Link  601 at Sat Mar 12 18:40:46 2016, MaxMem=    33554432 cpu:         0.1
 (Enter /opt/g09/g09/l9999.exe)
 1\1\GINC-LINUX-CBNE\FOpt\RB3LYP\3-21G\C4H4O1\DUSTIN\12-Mar-2016\0\\#P 
 B3LYP/3-21G opt\\Title Card Required\\0,1\C,-2.3114494948,1.69561171,0
 .1530026302\H,-3.1326586078,2.3731418627,0.0105720983\C,-2.0405729172,
 0.4328252156,-0.277670093\H,-2.6653401543,-0.1786656598,-0.9058267333\
 C,-0.7522120431,0.0681073694,0.269438249\H,-0.2370677925,-0.8660773032
 ,0.1253502393\C,-0.3162607614,1.1308002878,1.0002686578\H,0.5658519305
 ,1.3261426681,1.5811615264\O,-1.2605340742,2.1647842681,0.9520955523\\
 Version=ES64L-G09RevD.01\State=1-A'\HF=-228.7535405\RMSD=2.431e-09\RMS
 F=4.428e-05\Dipole=-0.0213171,-0.2952547,-0.1466263\Quadrupole=2.04355
 93,-0.4437339,-1.5998254,-1.2896168,2.2489551,0.4987433\PG=CS [SG(O1),
 X(C4H4)]\\@


 "MATHEMATICS IS THE ART OF GIVING THE SAME NAME
 TO DIFFERENT THINGS."
                    - H. POINCARE
 Job cpu time:       0 days  0 hours  0 minutes 12.7 seconds.
 File lengths (MBytes):  RWF=      5 Int=      0 D2E=      0 Chk=      1 Scr=      1
 Normal termination of Gaussian 09 at Sat Mar 12 18:40:46 2016.
