 Entering Gaussian System, Link 0=g09
 Input=best.com
 Output=best.log
 Initial command:
 /home/dustin/Applications/g09/g09/l1.exe "/tmp/Gau-20413.inp" -scrdir="/tmp/"
 Entering Link 1 = /home/dustin/Applications/g09/g09/l1.exe PID=     20415.
  
 Copyright (c) 1988,1990,1992,1993,1995,1998,2003,2009,2013,
            Gaussian, Inc.  All Rights Reserved.
  
 This is part of the Gaussian(R) 09 program.  It is based on
 the Gaussian(R) 03 system (copyright 2003, Gaussian, Inc.),
 the Gaussian(R) 98 system (copyright 1998, Gaussian, Inc.),
 the Gaussian(R) 94 system (copyright 1995, Gaussian, Inc.),
 the Gaussian 92(TM) system (copyright 1992, Gaussian, Inc.),
 the Gaussian 90(TM) system (copyright 1990, Gaussian, Inc.),
 the Gaussian 88(TM) system (copyright 1988, Gaussian, Inc.),
 the Gaussian 86(TM) system (copyright 1986, Carnegie Mellon
 University), and the Gaussian 82(TM) system (copyright 1983,
 Carnegie Mellon University). Gaussian is a federally registered
 trademark of Gaussian, Inc.
  
 This software contains proprietary and confidential information,
 including trade secrets, belonging to Gaussian, Inc.
  
 This software is provided under written license and may be
 used, copied, transmitted, or stored only in accord with that
 written license.
  
 The following legend is applicable only to US Government
 contracts under FAR:
  
                    RESTRICTED RIGHTS LEGEND
  
 Use, reproduction and disclosure by the US Government is
 subject to restrictions as set forth in subparagraphs (a)
 and (c) of the Commercial Computer Software - Restricted
 Rights clause in FAR 52.227-19.
  
 Gaussian, Inc.
 340 Quinnipiac St., Bldg. 40, Wallingford CT 06492
  
  
 ---------------------------------------------------------------
 Warning -- This program may not be used in any manner that
 competes with the business of Gaussian, Inc. or will provide
 assistance to any competitor of Gaussian, Inc.  The licensee
 of this program is prohibited from giving any competitor of
 Gaussian, Inc. access to this program.  By using this program,
 the user acknowledges that Gaussian, Inc. is engaged in the
 business of creating and licensing software in the field of
 computational chemistry and represents and warrants to the
 licensee that it is not a competitor of Gaussian, Inc. and that
 it will not use this program in any manner prohibited above.
 ---------------------------------------------------------------
  

 Cite this work as:
 Gaussian 09, Revision D.01,
 M. J. Frisch, G. W. Trucks, H. B. Schlegel, G. E. Scuseria, 
 M. A. Robb, J. R. Cheeseman, G. Scalmani, V. Barone, B. Mennucci, 
 G. A. Petersson, H. Nakatsuji, M. Caricato, X. Li, H. P. Hratchian, 
 A. F. Izmaylov, J. Bloino, G. Zheng, J. L. Sonnenberg, M. Hada, 
 M. Ehara, K. Toyota, R. Fukuda, J. Hasegawa, M. Ishida, T. Nakajima, 
 Y. Honda, O. Kitao, H. Nakai, T. Vreven, J. A. Montgomery, Jr., 
 J. E. Peralta, F. Ogliaro, M. Bearpark, J. J. Heyd, E. Brothers, 
 K. N. Kudin, V. N. Staroverov, T. Keith, R. Kobayashi, J. Normand, 
 K. Raghavachari, A. Rendell, J. C. Burant, S. S. Iyengar, J. Tomasi, 
 M. Cossi, N. Rega, J. M. Millam, M. Klene, J. E. Knox, J. B. Cross, 
 V. Bakken, C. Adamo, J. Jaramillo, R. Gomperts, R. E. Stratmann, 
 O. Yazyev, A. J. Austin, R. Cammi, C. Pomelli, J. W. Ochterski, 
 R. L. Martin, K. Morokuma, V. G. Zakrzewski, G. A. Voth, 
 P. Salvador, J. J. Dannenberg, S. Dapprich, A. D. Daniels, 
 O. Farkas, J. B. Foresman, J. V. Ortiz, J. Cioslowski, 
 and D. J. Fox, Gaussian, Inc., Wallingford CT, 2013.
 
 ******************************************
 Gaussian 09:  ES64L-G09RevD.01 24-Apr-2013
                 8-Apr-2016 
 ******************************************
 %chk=saddle.chk
 ----------------------------
 #P AM1(Input,Print) opt freq
 ----------------------------
 1/14=-1,18=20,19=15,26=1,38=1/1,3;
 2/9=110,12=2,17=6,18=5,40=1/2;
 3/5=2,16=1,25=1,41=700000,71=1,135=100,136=1/1,2,3;
 4/35=1/1;
 5/5=2,35=1,38=5/2;
 6/7=2,8=2,9=2,10=2,28=1/1;
 7//1,2,3,16;
 1/14=-1,18=20,19=15,26=1/3(2);
 2/9=110/2;
 99//99;
 2/9=110/2;
 3/5=2,16=1,25=1,41=700000,71=1,135=20,136=1/1,2,3;
 4/5=5,16=3,35=1/1;
 5/5=2,35=1,38=5/2;
 7//1,2,3,16;
 1/14=-1,18=20,19=15,26=1/3(-5);
 2/9=110/2;
 6/7=2,8=2,9=2,10=2,19=2,28=1/1;
 99/9=1/99;
 Leave Link    1 at Fri Apr  8 10:23:11 2016, MaxMem=           0 cpu:         0.0
 (Enter /home/dustin/Applications/g09/g09/l101.exe)
 ----
 best
 ----
 Symbolic Z-matrix:
 Charge =  0 Multiplicity = 1
 6                     0.88688  -0.68348  -0.05446 
 6                    -0.41206  -1.20249  -0.0053 
 6                    -0.33237   1.30578   0.04274 
 6                     0.89555   0.6917    0.01535 
 1                     1.80438   1.31852  -0.03658 
 1                    -0.55343   2.35163   0.23933 
 1                    -0.686    -2.31002   0.10793 
 1                     1.77111  -1.24673  -0.16015 
 16                   -1.57648  -0.00341  -0.11268 
 
 NAtoms=      9 NQM=        9 NQMF=       0 NMMI=      0 NMMIF=      0
                NMic=       0 NMicF=      0.
                    Isotopes and Nuclear Properties:
 (Nuclear quadrupole moments (NQMom) in fm**2, nuclear magnetic moments (NMagM)
  in nuclear magnetons)

  Atom         1           2           3           4           5           6           7           8           9
 IAtWgt=          12          12          12          12           1           1           1           1          32
 AtmWgt=  12.0000000  12.0000000  12.0000000  12.0000000   1.0078250   1.0078250   1.0078250   1.0078250  31.9720718
 NucSpn=           0           0           0           0           1           1           1           1           0
 AtZEff=   0.0000000   0.0000000   0.0000000   0.0000000   0.0000000   0.0000000   0.0000000   0.0000000   0.0000000
 NQMom=    0.0000000   0.0000000   0.0000000   0.0000000   0.0000000   0.0000000   0.0000000   0.0000000   0.0000000
 NMagM=    0.0000000   0.0000000   0.0000000   0.0000000   2.7928460   2.7928460   2.7928460   2.7928460   0.0000000
 AtZNuc=   6.0000000   6.0000000   6.0000000   6.0000000   1.0000000   1.0000000   1.0000000   1.0000000  16.0000000
 Leave Link  101 at Fri Apr  8 10:23:11 2016, MaxMem=    33554432 cpu:         0.0
 (Enter /home/dustin/Applications/g09/g09/l103.exe)

 GradGradGradGradGradGradGradGradGradGradGradGradGradGradGradGradGradGrad
 Berny optimization.
 Initialization pass.
                           ----------------------------
                           !    Initial Parameters    !
                           ! (Angstroms and Degrees)  !
 --------------------------                            --------------------------
 ! Name  Definition              Value          Derivative Info.                !
 --------------------------------------------------------------------------------
 ! R1    R(1,2)                  1.3997         estimate D2E/DX2                !
 ! R2    R(1,4)                  1.377          estimate D2E/DX2                !
 ! R3    R(1,8)                  1.0537         estimate D2E/DX2                !
 ! R4    R(2,7)                  1.1465         estimate D2E/DX2                !
 ! R5    R(2,9)                  1.6749         estimate D2E/DX2                !
 ! R6    R(3,4)                  1.3732         estimate D2E/DX2                !
 ! R7    R(3,6)                  1.0869         estimate D2E/DX2                !
 ! R8    R(3,9)                  1.8127         estimate D2E/DX2                !
 ! R9    R(4,5)                  1.1052         estimate D2E/DX2                !
 ! A1    A(2,1,4)              111.9867         estimate D2E/DX2                !
 ! A2    A(2,1,8)              125.7389         estimate D2E/DX2                !
 ! A3    A(4,1,8)              122.2521         estimate D2E/DX2                !
 ! A4    A(1,2,7)              125.6908         estimate D2E/DX2                !
 ! A5    A(1,2,9)              112.1778         estimate D2E/DX2                !
 ! A6    A(7,2,9)              122.1272         estimate D2E/DX2                !
 ! A7    A(4,3,6)              128.0093         estimate D2E/DX2                !
 ! A8    A(4,3,9)              106.8003         estimate D2E/DX2                !
 ! A9    A(6,3,9)              124.8114         estimate D2E/DX2                !
 ! A10   A(1,4,3)              116.2307         estimate D2E/DX2                !
 ! A11   A(1,4,5)              124.6935         estimate D2E/DX2                !
 ! A12   A(3,4,5)              118.8568         estimate D2E/DX2                !
 ! A13   A(2,9,3)               91.9716         estimate D2E/DX2                !
 ! D1    D(4,1,2,7)           -170.516          estimate D2E/DX2                !
 ! D2    D(4,1,2,9)              8.7471         estimate D2E/DX2                !
 ! D3    D(8,1,2,7)             11.1775         estimate D2E/DX2                !
 ! D4    D(8,1,2,9)           -169.5594         estimate D2E/DX2                !
 ! D5    D(2,1,4,3)             -3.5074         estimate D2E/DX2                !
 ! D6    D(2,1,4,5)           -178.0503         estimate D2E/DX2                !
 ! D7    D(8,1,4,3)            174.8672         estimate D2E/DX2                !
 ! D8    D(8,1,4,5)              0.3243         estimate D2E/DX2                !
 ! D9    D(1,2,9,3)             -8.7399         estimate D2E/DX2                !
 ! D10   D(7,2,9,3)            170.5535         estimate D2E/DX2                !
 ! D11   D(6,3,4,1)            170.3187         estimate D2E/DX2                !
 ! D12   D(6,3,4,5)            -14.8034         estimate D2E/DX2                !
 ! D13   D(9,3,4,1)             -2.809          estimate D2E/DX2                !
 ! D14   D(9,3,4,5)            172.069          estimate D2E/DX2                !
 ! D15   D(4,3,9,2)              6.5497         estimate D2E/DX2                !
 ! D16   D(6,3,9,2)           -166.8565         estimate D2E/DX2                !
 --------------------------------------------------------------------------------
 Trust Radius=3.00D-01 FncErr=1.00D-07 GrdErr=1.00D-07
 Number of steps in this run=     48 maximum allowed number of steps=    100.
 GradGradGradGradGradGradGradGradGradGradGradGradGradGradGradGradGradGrad

 Leave Link  103 at Fri Apr  8 10:23:11 2016, MaxMem=    33554432 cpu:         0.0
 (Enter /home/dustin/Applications/g09/g09/l202.exe)
                          Input orientation:                          
 ---------------------------------------------------------------------
 Center     Atomic      Atomic             Coordinates (Angstroms)
 Number     Number       Type             X           Y           Z
 ---------------------------------------------------------------------
      1          6           0        0.886877   -0.683479   -0.054462
      2          6           0       -0.412061   -1.202485   -0.005295
      3          6           0       -0.332371    1.305778    0.042737
      4          6           0        0.895551    0.691700    0.015352
      5          1           0        1.804380    1.318517   -0.036575
      6          1           0       -0.553430    2.351628    0.239331
      7          1           0       -0.685998   -2.310021    0.107929
      8          1           0        1.771106   -1.246727   -0.160151
      9         16           0       -1.576482   -0.003414   -0.112682
 ---------------------------------------------------------------------
                    Distance matrix (angstroms):
                    1          2          3          4          5
     1  C    0.000000
     2  C    1.399652   0.000000
     3  C    2.335200   2.509988   0.000000
     4  C    1.376977   2.301785   1.373184   0.000000
     5  H    2.202299   3.356939   2.138260   1.105245   0.000000
     6  H    3.372339   3.565326   1.086885   2.214740   2.588959
     7  H    2.268468   1.146515   3.633635   3.394142   4.403311
     8  H    1.053698   2.189099   3.313768   2.134220   2.568434
     9  S    2.556172   1.674867   1.812719   2.571094   3.630912
                    6          7          8          9
     6  H    0.000000
     7  H    4.665384   0.000000
     8  H    4.302466   2.690692   0.000000
     9  S    2.591673   2.482351   3.571334   0.000000
 Stoichiometry    C4H4S
 Framework group  C1[X(C4H4S)]
 Deg. of freedom    21
 Full point group                 C1      NOp   1
 Largest Abelian subgroup         C1      NOp   1
 Largest concise Abelian subgroup C1      NOp   1
                         Standard orientation:                         
 ---------------------------------------------------------------------
 Center     Atomic      Atomic             Coordinates (Angstroms)
 Number     Number       Type             X           Y           Z
 ---------------------------------------------------------------------
      1          6           0       -1.190413    0.820906   -0.029048
      2          6           0        0.150904    1.208585    0.068922
      3          6           0       -0.173732   -1.280171    0.041614
      4          6           0       -1.334808   -0.548164    0.000336
      5          1           0       -2.298435   -1.081267   -0.093423
      6          1           0       -0.061178   -2.347499    0.213254
      7          1           0        0.527915    2.280536    0.221502
      8          1           0       -2.012267    1.470729   -0.141142
      9         16           0        1.195766   -0.095590   -0.043196
 ---------------------------------------------------------------------
 Rotational constants (GHZ):      7.9492710      5.3450716      3.2069006
 Leave Link  202 at Fri Apr  8 10:23:11 2016, MaxMem=    33554432 cpu:         0.0
 (Enter /home/dustin/Applications/g09/g09/l301.exe)

 Semi-emprical parameters in input format:
 Method=8 CoreType=1 PeptideFC=0.0121077625 RIJScale=0.5148421843
 ****
 H       
 PQN=1 NValence=1 F0ss=0.3861905212 ZetaOverlap=1.2496120360 U=-0.4188110042
 Beta=-0.2369859586 CoreKO=1.0579003764 KON=0,0,0,1.0589197790 KON=1,0,1,1.0497731350
 KON=0,1,1,1.0019787936 KON=2,1,1,1.0303754612 EISol=-0.4188110042 EHeat=0.0830298228
 Alpha=1.5411457947
 GCore=0.0082680393,1.3799011174,2.2676713595
 GCore=0.0003656320,1.3109146540,3.3684245479
 GCore=-0.0012900288,0.5906486780,3.9242493919
 ****
 C       
 PQN=2,2 NValence=4 F0ss=0.5341278571 F0sp=0.3848580628 F0pp=0.4186252881 F2pp=0.1960977238
 G1sp=0.2549607877
 ZetaOverlap=1.7888907992,1.5900900460
 U=-1.9120180828,-1.5193343571
 Beta=-0.6167809829,-0.2849048578 DDN=0,1,0.8102100380 DDN=1,1,0.6820171242
 CoreKO=1.0304091322 KON=0,0,0,1.0906754025 KON=1,0,1,0.8098642350 KON=0,1,1,1.0295078685
 KON=2,1,1,0.7580621091 EISol=-4.4398989268 EHeat=0.2723305520 Alpha=1.3929601747
 DipHyp=1.6203268518
 GCore=0.0007908418,1.3753946001,2.8862491072
 GCore=0.0040442674,1.4337860813,3.1243303050
 GCore=-0.0011809165,1.2972620337,3.8739385724
 GCore=-0.0000896351,1.4220637298,4.9827618837
 ****
 S       
 PQN=3,3 NValence=6 F0ss=0.4231238846 F0sp=0.3183640731 F0pp=0.3136271218 F2pp=0.3513050233
 G1sp=0.2461258931
 ZetaOverlap=2.1664799235,1.4222069465,0.9376044970
 U=-2.0834683120,-1.8359407715
 Beta=-0.1301172936,-0.2928210956 DDN=0,1,0.9004265000 DDN=1,1,1.0069068502
 CoreKO=1.1087944437 KON=0,0,0,1.1203815822 KON=1,0,1,0.7811934487 KON=0,1,1,1.0648909719
 KON=2,1,1,0.8270286475 EISol=-7.0460287497 EHeat=0.1058151363 Alpha=1.3026480172
 DipHyp=1.8007493954
 GCore=-0.0361455890,1.2555382754,1.6063090732
 GCore=-0.0006608381,1.6425719595,3.3504655668
 GCore=0.0008177898,3.6591110164,3.7967867236
 ****
 
 Standard basis: VSTO-6G (5D, 7F)
 Ernie: Thresh=  0.10000D-02 Tol=  0.10000D-05 Strict=F.
  NNHCO=     0 NNPyr=     0 NCTC=     0               EPep=         0.000000000
    EC=        64.408836495  ECS=         1.678275130   EG=         0.200876695
   EHC=         0.000000000  EAt=       -26.480868474  AtH=         1.527256636
 EPDDG=         0.000000000  ECC=        66.287988320 EAtT=        28.008125109
 There are    24 symmetry adapted cartesian basis functions of A   symmetry.
 There are    24 symmetry adapted basis functions of A   symmetry.
    24 basis functions,   144 primitive gaussians,    24 cartesian basis functions
    13 alpha electrons       13 beta electrons
       nuclear repulsion energy        94.2961134294 Hartrees.



 Warning!  S  atom    9 may be hypervalent but has no d functions.



 IExCor=    0 DFT=F Ex=HF Corr=None ExCW=0 ScaHFX=  1.000000
 ScaDFX=  1.000000  1.000000  1.000000  1.000000 ScalE2=  1.000000  1.000000
 IRadAn=      0 IRanWt=     -1 IRanGd=            0 ICorTp=0 IEmpDi=  4
 Integral buffers will be    131072 words long.
 Regular integral format.
 Two-electron integral symmetry is turned off.
 Leave Link  301 at Fri Apr  8 10:23:11 2016, MaxMem=    33554432 cpu:         0.0
 (Enter /home/dustin/Applications/g09/g09/l302.exe)
 Do NDO integrals.
 NPDir=0 NMtPBC=     1 NCelOv=     1 NCel=       1 NClECP=     1 NCelD=      1
         NCelK=      1 NCelE2=     1 NClLst=     1 CellRange=     0.0.
 One-electron integrals computed using PRISM.
 NBasis=    24 RedAO= F EigKep=  0.00D+00  NBF=    24
 NBsUse=    24 1.00D-04 EigRej=  0.00D+00 NBFU=    24
 Leave Link  302 at Fri Apr  8 10:23:11 2016, MaxMem=    33554432 cpu:         0.0
 (Enter /home/dustin/Applications/g09/g09/l303.exe)
 DipDrv:  MaxL=1.
 Leave Link  303 at Fri Apr  8 10:23:11 2016, MaxMem=    33554432 cpu:         0.0
 (Enter /home/dustin/Applications/g09/g09/l401.exe)
 Simple Huckel Guess.
 JPrj=0 DoOrth=F DoCkMO=F.
 Leave Link  401 at Fri Apr  8 10:23:11 2016, MaxMem=    33554432 cpu:         0.0
 (Enter /home/dustin/Applications/g09/g09/l502.exe)
 Closed shell SCF:
 Using DIIS extrapolation, IDIIS=  1040.
 Overlap will be assumed to be unity.
 Two-electron integral symmetry not used.
 Keep J ints in memory in canonical form, NReq=888082.
 IVT=       79475 IEndB=       79475 NGot=    33554432 MDV=    33473473
 LenX=    33473473 LenY=    33472456
 Requested convergence on RMS density matrix=1.00D-08 within 128 cycles.
 Requested convergence on MAX density matrix=1.00D-06.
 Requested convergence on             energy=1.00D-06.
 No special actions if energy rises.
 FoFCou: FMM=F IPFlag=           0 FMFlag=           0 FMFlg1=           0
         NFxFlg=           0 DoJE=F BraDBF=F KetDBF=F FulRan=T
         wScrn=  0.000000 ICntrl=     600 IOpCl=  2 I1Cent=           0 NGrid=           0
         NMat0=    1 NMatS0=     54 NMatT0=    0 NMatD0=    1 NMtDS0=    0 NMtDT0=    0
 Symmetry not used in FoFCou.

 Cycle   1  Pass 1  IDiag  1:
 E=-0.771920181579702    
 DIIS: error= 4.04D-02 at cycle   1 NSaved=   1.
 NSaved= 1 IEnMin= 1 EnMin=-0.771920181579702     IErMin= 1 ErrMin= 4.04D-02
 ErrMax= 4.04D-02  0.00D+00 EMaxC= 1.00D-01 BMatC= 7.48D-02 BMatP= 7.48D-02
 IDIUse=3 WtCom= 5.96D-01 WtEn= 4.04D-01
 Coeff-Com:  0.100D+01
 Coeff-En:   0.100D+01
 Coeff:      0.100D+01
 GapD=    2.000 DampG=2.000 DampE=0.500 DampFc=1.0000 IDamp=-1.
 RMSDP=1.67D-02 MaxDP=9.80D-02              OVMax= 0.00D+00

 Cycle   2  Pass 1  IDiag  1:
 E=-0.945554906870854     Delta-E=       -0.173634725291 Rises=F Damp=F
 DIIS: error= 8.79D-03 at cycle   2 NSaved=   2.
 NSaved= 2 IEnMin= 2 EnMin=-0.945554906870854     IErMin= 2 ErrMin= 8.79D-03
 ErrMax= 8.79D-03  0.00D+00 EMaxC= 1.00D-01 BMatC= 3.35D-03 BMatP= 7.48D-02
 IDIUse=3 WtCom= 9.12D-01 WtEn= 8.79D-02
 Coeff-Com: -0.227D+00 0.123D+01
 Coeff-En:   0.000D+00 0.100D+01
 Coeff:     -0.207D+00 0.121D+01
 RMSDP=5.39D-03 MaxDP=5.35D-02 DE=-1.74D-01 OVMax= 0.00D+00

 Cycle   3  Pass 1  IDiag  3:
 E=-0.956911880250246     Delta-E=       -0.011356973379 Rises=F Damp=F
 DIIS: error= 2.29D-03 at cycle   3 NSaved=   3.
 NSaved= 3 IEnMin= 3 EnMin=-0.956911880250246     IErMin= 3 ErrMin= 2.29D-03
 ErrMax= 2.29D-03  0.00D+00 EMaxC= 1.00D-01 BMatC= 1.18D-04 BMatP= 3.35D-03
 IDIUse=3 WtCom= 9.77D-01 WtEn= 2.29D-02
 Coeff-Com:  0.601D-01-0.409D+00 0.135D+01
 Coeff-En:   0.000D+00 0.000D+00 0.100D+01
 Coeff:      0.587D-01-0.400D+00 0.134D+01
 Gap=     0.353 Goal=   None    Shift=    0.000
 RMSDP=1.75D-03 MaxDP=2.23D-02 DE=-1.14D-02 OVMax= 2.41D-02

 Cycle   4  Pass 1  IDiag  3:
 E=-0.957713443954631     Delta-E=       -0.000801563704 Rises=F Damp=F
 DIIS: error= 6.38D-04 at cycle   4 NSaved=   4.
 NSaved= 4 IEnMin= 4 EnMin=-0.957713443954631     IErMin= 4 ErrMin= 6.38D-04
 ErrMax= 6.38D-04  0.00D+00 EMaxC= 1.00D-01 BMatC= 1.19D-05 BMatP= 1.18D-04
 IDIUse=3 WtCom= 9.94D-01 WtEn= 6.38D-03
 Coeff-Com: -0.563D-02 0.620D-01-0.489D+00 0.143D+01
 Coeff-En:   0.000D+00 0.000D+00 0.000D+00 0.100D+01
 Coeff:     -0.559D-02 0.616D-01-0.486D+00 0.143D+01
 Gap=     0.354 Goal=   None    Shift=    0.000
 RMSDP=6.99D-04 MaxDP=8.11D-03 DE=-8.02D-04 OVMax= 8.39D-03

 Cycle   5  Pass 1  IDiag  3:
 E=-0.957811910972623     Delta-E=       -0.000098467018 Rises=F Damp=F
 DIIS: error= 1.67D-04 at cycle   5 NSaved=   5.
 NSaved= 5 IEnMin= 5 EnMin=-0.957811910972623     IErMin= 5 ErrMin= 1.67D-04
 ErrMax= 1.67D-04  0.00D+00 EMaxC= 1.00D-01 BMatC= 1.24D-06 BMatP= 1.19D-05
 IDIUse=3 WtCom= 9.98D-01 WtEn= 1.67D-03
 Coeff-Com: -0.183D-02 0.620D-04 0.152D+00-0.762D+00 0.161D+01
 Coeff-En:   0.000D+00 0.000D+00 0.000D+00 0.000D+00 0.100D+01
 Coeff:     -0.182D-02 0.619D-04 0.151D+00-0.761D+00 0.161D+01
 Gap=     0.354 Goal=   None    Shift=    0.000
 RMSDP=2.54D-04 MaxDP=1.73D-03 DE=-9.85D-05 OVMax= 1.96D-03

 Cycle   6  Pass 1  IDiag  3:
 E=-0.957822775311726     Delta-E=       -0.000010864339 Rises=F Damp=F
 DIIS: error= 5.84D-05 at cycle   6 NSaved=   6.
 NSaved= 6 IEnMin= 6 EnMin=-0.957822775311726     IErMin= 6 ErrMin= 5.84D-05
 ErrMax= 5.84D-05  0.00D+00 EMaxC= 1.00D-01 BMatC= 8.12D-08 BMatP= 1.24D-06
 IDIUse=1 WtCom= 1.00D+00 WtEn= 0.00D+00
 Coeff-Com:  0.141D-02-0.508D-02-0.387D-01 0.276D+00-0.816D+00 0.158D+01
 Coeff:      0.141D-02-0.508D-02-0.387D-01 0.276D+00-0.816D+00 0.158D+01
 Gap=     0.354 Goal=   None    Shift=    0.000
 RMSDP=7.14D-05 MaxDP=4.96D-04 DE=-1.09D-05 OVMax= 6.14D-04

 Cycle   7  Pass 1  IDiag  3:
 E=-0.957823522252582     Delta-E=       -0.000000746941 Rises=F Damp=F
 DIIS: error= 1.24D-05 at cycle   7 NSaved=   7.
 NSaved= 7 IEnMin= 7 EnMin=-0.957823522252582     IErMin= 7 ErrMin= 1.24D-05
 ErrMax= 1.24D-05  0.00D+00 EMaxC= 1.00D-01 BMatC= 3.35D-09 BMatP= 8.12D-08
 IDIUse=1 WtCom= 1.00D+00 WtEn= 0.00D+00
 Coeff-Com: -0.482D-03 0.182D-02 0.131D-01-0.960D-01 0.296D+00-0.675D+00
 Coeff-Com:  0.146D+01
 Coeff:     -0.482D-03 0.182D-02 0.131D-01-0.960D-01 0.296D+00-0.675D+00
 Coeff:      0.146D+01
 Gap=     0.354 Goal=   None    Shift=    0.000
 RMSDP=1.32D-05 MaxDP=9.52D-05 DE=-7.47D-07 OVMax= 1.48D-04

 Cycle   8  Pass 1  IDiag  3:
 E=-0.957823552972101     Delta-E=       -0.000000030720 Rises=F Damp=F
 DIIS: error= 3.34D-06 at cycle   8 NSaved=   8.
 NSaved= 8 IEnMin= 8 EnMin=-0.957823552972101     IErMin= 8 ErrMin= 3.34D-06
 ErrMax= 3.34D-06  0.00D+00 EMaxC= 1.00D-01 BMatC= 3.83D-10 BMatP= 3.35D-09
 IDIUse=1 WtCom= 1.00D+00 WtEn= 0.00D+00
 Coeff-Com: -0.162D-04-0.102D-04 0.110D-02-0.600D-02 0.138D-01-0.116D-02
 Coeff-Com: -0.363D+00 0.136D+01
 Coeff:     -0.162D-04-0.102D-04 0.110D-02-0.600D-02 0.138D-01-0.116D-02
 Coeff:     -0.363D+00 0.136D+01
 Gap=     0.354 Goal=   None    Shift=    0.000
 RMSDP=4.64D-06 MaxDP=3.21D-05 DE=-3.07D-08 OVMax= 5.10D-05

 Cycle   9  Pass 1  IDiag  3:
 E=-0.957823556517212     Delta-E=       -0.000000003545 Rises=F Damp=F
 DIIS: error= 7.88D-07 at cycle   9 NSaved=   9.
 NSaved= 9 IEnMin= 9 EnMin=-0.957823556517212     IErMin= 9 ErrMin= 7.88D-07
 ErrMax= 7.88D-07  0.00D+00 EMaxC= 1.00D-01 BMatC= 3.56D-11 BMatP= 3.83D-10
 IDIUse=1 WtCom= 1.00D+00 WtEn= 0.00D+00
 Coeff-Com:  0.564D-04-0.193D-03-0.163D-02 0.113D-01-0.325D-01 0.638D-01
 Coeff-Com: -0.914D-02-0.541D+00 0.151D+01
 Coeff:      0.564D-04-0.193D-03-0.163D-02 0.113D-01-0.325D-01 0.638D-01
 Coeff:     -0.914D-02-0.541D+00 0.151D+01
 Gap=     0.354 Goal=   None    Shift=    0.000
 RMSDP=1.60D-06 MaxDP=1.34D-05 DE=-3.55D-09 OVMax= 1.84D-05

 Cycle  10  Pass 1  IDiag  3:
 E=-0.957823556852105     Delta-E=       -0.000000000335 Rises=F Damp=F
 DIIS: error= 1.80D-07 at cycle  10 NSaved=  10.
 NSaved=10 IEnMin=10 EnMin=-0.957823556852105     IErMin=10 ErrMin= 1.80D-07
 ErrMax= 1.80D-07  0.00D+00 EMaxC= 1.00D-01 BMatC= 1.72D-12 BMatP= 3.56D-11
 IDIUse=1 WtCom= 1.00D+00 WtEn= 0.00D+00
 Coeff-Com: -0.235D-04 0.760D-04 0.792D-03-0.525D-02 0.152D-01-0.308D-01
 Coeff-Com:  0.180D-01 0.208D+00-0.727D+00 0.152D+01
 Coeff:     -0.235D-04 0.760D-04 0.792D-03-0.525D-02 0.152D-01-0.308D-01
 Coeff:      0.180D-01 0.208D+00-0.727D+00 0.152D+01
 Gap=     0.354 Goal=   None    Shift=    0.000
 RMSDP=2.94D-07 MaxDP=1.59D-06 DE=-3.35D-10 OVMax= 3.26D-06

 Cycle  11  Pass 1  IDiag  3:
 E=-0.957823556868348     Delta-E=       -0.000000000016 Rises=F Damp=F
 DIIS: error= 7.51D-08 at cycle  11 NSaved=  11.
 NSaved=11 IEnMin=11 EnMin=-0.957823556868348     IErMin=11 ErrMin= 7.51D-08
 ErrMax= 7.51D-08  0.00D+00 EMaxC= 1.00D-01 BMatC= 2.23D-13 BMatP= 1.72D-12
 IDIUse=1 WtCom= 1.00D+00 WtEn= 0.00D+00
 Coeff-Com:  0.731D-05-0.227D-04-0.286D-03 0.183D-02-0.530D-02 0.110D-01
 Coeff-Com: -0.755D-02-0.711D-01 0.269D+00-0.828D+00 0.163D+01
 Coeff:      0.731D-05-0.227D-04-0.286D-03 0.183D-02-0.530D-02 0.110D-01
 Coeff:     -0.755D-02-0.711D-01 0.269D+00-0.828D+00 0.163D+01
 Gap=     0.354 Goal=   None    Shift=    0.000
 RMSDP=1.30D-07 MaxDP=7.27D-07 DE=-1.62D-11 OVMax= 1.67D-06

 Cycle  12  Pass 1  IDiag  3:
 E=-0.957823556870721     Delta-E=       -0.000000000002 Rises=F Damp=F
 DIIS: error= 2.64D-08 at cycle  12 NSaved=  12.
 NSaved=12 IEnMin=12 EnMin=-0.957823556870721     IErMin=12 ErrMin= 2.64D-08
 ErrMax= 2.64D-08  0.00D+00 EMaxC= 1.00D-01 BMatC= 2.84D-14 BMatP= 2.23D-13
 IDIUse=1 WtCom= 1.00D+00 WtEn= 0.00D+00
 Coeff-Com: -0.260D-05 0.785D-05 0.118D-03-0.729D-03 0.210D-02-0.439D-02
 Coeff-Com:  0.301D-02 0.298D-01-0.114D+00 0.394D+00-0.111D+01 0.180D+01
 Coeff:     -0.260D-05 0.785D-05 0.118D-03-0.729D-03 0.210D-02-0.439D-02
 Coeff:      0.301D-02 0.298D-01-0.114D+00 0.394D+00-0.111D+01 0.180D+01
 Gap=     0.354 Goal=   None    Shift=    0.000
 RMSDP=5.77D-08 MaxDP=3.48D-07 DE=-2.37D-12 OVMax= 7.61D-07

 Cycle  13  Pass 1  IDiag  3:
 E=-0.957823556871048     Delta-E=        0.000000000000 Rises=F Damp=F
 DIIS: error= 5.48D-09 at cycle  13 NSaved=  13.
 NSaved=13 IEnMin=13 EnMin=-0.957823556871048     IErMin=13 ErrMin= 5.48D-09
 ErrMax= 5.48D-09  0.00D+00 EMaxC= 1.00D-01 BMatC= 1.96D-15 BMatP= 2.84D-14
 IDIUse=1 WtCom= 1.00D+00 WtEn= 0.00D+00
 Coeff-Com:  0.298D-06-0.417D-06-0.303D-04 0.162D-03-0.450D-03 0.965D-03
 Coeff-Com: -0.708D-03-0.700D-02 0.278D-01-0.120D+00 0.438D+00-0.976D+00
 Coeff-Com:  0.164D+01
 Coeff:      0.298D-06-0.417D-06-0.303D-04 0.162D-03-0.450D-03 0.965D-03
 Coeff:     -0.708D-03-0.700D-02 0.278D-01-0.120D+00 0.438D+00-0.976D+00
 Coeff:      0.164D+01
 Gap=     0.354 Goal=   None    Shift=    0.000
 RMSDP=1.33D-08 MaxDP=8.47D-08 DE=-3.27D-13 OVMax= 1.63D-07

 Cycle  14  Pass 1  IDiag  3:
 E=-0.957823556871077     Delta-E=        0.000000000000 Rises=F Damp=F
 DIIS: error= 1.11D-09 at cycle  14 NSaved=  14.
 NSaved=14 IEnMin=14 EnMin=-0.957823556871077     IErMin=14 ErrMin= 1.11D-09
 ErrMax= 1.11D-09  0.00D+00 EMaxC= 1.00D-01 BMatC= 1.03D-16 BMatP= 1.96D-15
 IDIUse=1 WtCom= 1.00D+00 WtEn= 0.00D+00
 Coeff-Com: -0.127D-07-0.193D-06 0.892D-05-0.418D-04 0.112D-03-0.242D-03
 Coeff-Com:  0.112D-03 0.235D-02-0.892D-02 0.412D-01-0.165D+00 0.400D+00
 Coeff-Com: -0.817D+00 0.155D+01
 Coeff:     -0.127D-07-0.193D-06 0.892D-05-0.418D-04 0.112D-03-0.242D-03
 Coeff:      0.112D-03 0.235D-02-0.892D-02 0.412D-01-0.165D+00 0.400D+00
 Coeff:     -0.817D+00 0.155D+01
 Gap=     0.354 Goal=   None    Shift=    0.000
 RMSDP=2.35D-09 MaxDP=1.26D-08 DE=-2.84D-14 OVMax= 2.14D-08

 Cycle  15  Pass 2  IDiag  1:
 SCF Done:  E(RAM1) = -0.957823556871     A.U. after   15 cycles
            NFock= 14  Conv=0.24D-08     -V/T= 0.9408
 KE=-1.617953575139D+01 PE=-1.559328244510D+02 EE= 7.685842321614D+01
 Leave Link  502 at Fri Apr  8 10:23:11 2016, MaxMem=    33554432 cpu:         0.0
 (Enter /home/dustin/Applications/g09/g09/l601.exe)
 Copying SCF densities to generalized density rwf, IOpCl= 0 IROHF=0.

 **********************************************************************

            Population analysis using the SCF density.

 **********************************************************************

 Orbital symmetries:
       Occupied  (A) (A) (A) (A) (A) (A) (A) (A) (A) (A) (A) (A)
                 (A)
       Virtual   (A) (A) (A) (A) (A) (A) (A) (A) (A) (A) (A)
 The electronic state is 1-A.
 Alpha  occ. eigenvalues --   -1.53306  -1.19494  -0.99900  -0.80807  -0.71159
 Alpha  occ. eigenvalues --   -0.62985  -0.57263  -0.53572  -0.51399  -0.50637
 Alpha  occ. eigenvalues --   -0.44476  -0.38408  -0.36369
 Alpha virt. eigenvalues --   -0.00944   0.01306   0.02777   0.06291   0.11584
 Alpha virt. eigenvalues --    0.12903   0.14453   0.15841   0.17673   0.19608
 Alpha virt. eigenvalues --    0.20489
          Condensed to atoms (all electrons):
               1          2          3          4          5          6
     1  C    4.098453   0.000000   0.000000   0.000000   0.000000   0.000000
     2  C    0.000000   4.284116   0.000000   0.000000   0.000000   0.000000
     3  C    0.000000   0.000000   4.243926   0.000000   0.000000   0.000000
     4  C    0.000000   0.000000   0.000000   4.085752   0.000000   0.000000
     5  H    0.000000   0.000000   0.000000   0.000000   0.927887   0.000000
     6  H    0.000000   0.000000   0.000000   0.000000   0.000000   0.902404
     7  H    0.000000   0.000000   0.000000   0.000000   0.000000   0.000000
     8  H    0.000000   0.000000   0.000000   0.000000   0.000000   0.000000
     9  S    0.000000   0.000000   0.000000   0.000000   0.000000   0.000000
               7          8          9
     1  C    0.000000   0.000000   0.000000
     2  C    0.000000   0.000000   0.000000
     3  C    0.000000   0.000000   0.000000
     4  C    0.000000   0.000000   0.000000
     5  H    0.000000   0.000000   0.000000
     6  H    0.000000   0.000000   0.000000
     7  H    0.905714   0.000000   0.000000
     8  H    0.000000   0.923544   0.000000
     9  S    0.000000   0.000000   5.628204
 Mulliken charges:
               1
     1  C   -0.098453
     2  C   -0.284116
     3  C   -0.243926
     4  C   -0.085752
     5  H    0.072113
     6  H    0.097596
     7  H    0.094286
     8  H    0.076456
     9  S    0.371796
 Sum of Mulliken charges =   0.00000
 Mulliken charges with hydrogens summed into heavy atoms:
               1
     1  C   -0.021996
     2  C   -0.189830
     3  C   -0.146330
     4  C   -0.013639
     9  S    0.371796
 Charge=              0.0000 electrons
 Dipole moment (field-independent basis, Debye):
    X=              0.1264    Y=             -0.0283    Z=              0.0149  Tot=              0.1304
 N-N= 9.429611342942D+01 E-N=-1.559328244287D+02  KE=-1.617953575139D+01
 Leave Link  601 at Fri Apr  8 10:23:11 2016, MaxMem=    33554432 cpu:         0.0
 (Enter /home/dustin/Applications/g09/g09/l701.exe)
 Compute integral first derivatives.
 ... and contract with generalized density number  0.
 Leave Link  701 at Fri Apr  8 10:23:11 2016, MaxMem=    33554432 cpu:         0.0
 (Enter /home/dustin/Applications/g09/g09/l702.exe)
 L702 exits ... SP integral derivatives will be done elsewhere.
 Leave Link  702 at Fri Apr  8 10:23:11 2016, MaxMem=    33554432 cpu:         0.0
 (Enter /home/dustin/Applications/g09/g09/l703.exe)
 Compute integral first derivatives, UseDBF=F ICtDFT=           0.
 Integral derivatives from FoFJK, PRISM(SPDF).
 Calling FoFJK, ICntrl=      2127 FMM=F ISym2X=0 I1Cent= 0 IOpClX= 0 NMat=1 NMatS=1 NMatT=0.
 FoFJK:  IHMeth= 8 ICntrl=    2127 DoSepK=F KAlg= 0 I1Cent=   0 FoldK=F
 IRaf=         0 NMat=   1 IRICut=       1 DoRegI=T DoRafI=F ISym2E= 0.
 FoFCou: FMM=F IPFlag=           0 FMFlag=      100000 FMFlg1=         800
         NFxFlg=           0 DoJE=F BraDBF=F KetDBF=F FulRan=T
         wScrn=  0.000000 ICntrl=    2127 IOpCl=  0 I1Cent=           0 NGrid=           0
         NMat0=    1 NMatS0=      1 NMatT0=    0 NMatD0=    1 NMtDS0=    0 NMtDT0=    0
 Symmetry not used in FoFCou.
 Leave Link  703 at Fri Apr  8 10:23:11 2016, MaxMem=    33554432 cpu:         0.0
 (Enter /home/dustin/Applications/g09/g09/l716.exe)
 Dipole        = 4.97321909D-02-1.11335115D-02 5.86380591D-03
 ***** Axes restored to original set *****
 -------------------------------------------------------------------
 Center     Atomic                   Forces (Hartrees/Bohr)
 Number     Number              X              Y              Z
 -------------------------------------------------------------------
      1        6          -0.033931042   -0.048382338    0.001709846
      2        6           0.031300183   -0.059753152    0.001227622
      3        6          -0.002518293   -0.000677196    0.006673401
      4        6           0.014997600    0.076928513   -0.006619184
      5        1          -0.006287265   -0.011438414    0.005119078
      6        1           0.001370135   -0.010664688   -0.008888419
      7        1           0.014589162    0.042493506   -0.009386758
      8        1           0.017659588   -0.016980632    0.002348784
      9       16          -0.037180069    0.028474401    0.007815631
 -------------------------------------------------------------------
 Cartesian Forces:  Max     0.076928513 RMS     0.026972280
 Leave Link  716 at Fri Apr  8 10:23:11 2016, MaxMem=    33554432 cpu:         0.0
 (Enter /home/dustin/Applications/g09/g09/l103.exe)

 GradGradGradGradGradGradGradGradGradGradGradGradGradGradGradGradGradGrad
 Berny optimization.
 FormGI is forming the generalized inverse of G from B-inverse, IUseBI=4.
 Internal  Forces:  Max     0.055060329 RMS     0.015074422
 Search for a local minimum.
 Step number   1 out of a maximum of   48
 All quantities printed in internal units (Hartrees-Bohrs-Radians)
 RMS Force = .15074D-01 SwitMx=.10000D-02 MixMth= 1
 Mixed Optimization -- RFO/linear search
 Second derivative matrix not updated -- first step.
 ITU=  0
     Eigenvalues ---    0.01534   0.01906   0.02072   0.02244   0.02312
     Eigenvalues ---    0.02428   0.15853   0.15935   0.15992   0.15999
     Eigenvalues ---    0.21951   0.22604   0.24912   0.29021   0.33109
     Eigenvalues ---    0.35175   0.37452   0.39369   0.43463   0.47573
     Eigenvalues ---    0.49281
 RFO step:  Lambda=-2.60293751D-02 EMin= 1.53381672D-02
 Linear search not attempted -- first point.
 Iteration  1 RMS(Cart)=  0.06376857 RMS(Int)=  0.00306815
 Iteration  2 RMS(Cart)=  0.00341714 RMS(Int)=  0.00111438
 Iteration  3 RMS(Cart)=  0.00000608 RMS(Int)=  0.00111437
 Iteration  4 RMS(Cart)=  0.00000000 RMS(Int)=  0.00111437
 ITry= 1 IFail=0 DXMaxC= 2.24D-01 DCOld= 1.00D+10 DXMaxT= 3.00D-01 DXLimC= 3.00D+00 Rises=F
 Variable       Old X    -DE/DX   Delta X   Delta X   Delta X     New X
                                 (Linear)    (Quad)   (Total)
    R1        2.64496  -0.01889   0.00000  -0.03776  -0.03823   2.60673
    R2        2.60211   0.05506   0.00000   0.10739   0.10747   2.70958
    R3        1.99120   0.02366   0.00000   0.05637   0.05637   2.04757
    R4        2.16660  -0.04546   0.00000  -0.14376  -0.14376   2.02284
    R5        3.16504   0.04002   0.00000   0.09510   0.09468   3.25972
    R6        2.59494   0.00308   0.00000   0.00609   0.00660   2.60155
    R7        2.05391  -0.01215   0.00000  -0.03216  -0.03216   2.02176
    R8        3.42554   0.00411   0.00000   0.01092   0.01123   3.43677
    R9        2.08861  -0.01190   0.00000  -0.03332  -0.03332   2.05529
    A1        1.95454  -0.00183   0.00000   0.00323   0.00089   1.95542
    A2        2.19456  -0.00377   0.00000  -0.02712  -0.02610   2.16846
    A3        2.13370   0.00557   0.00000   0.02326   0.02429   2.15799
    A4        2.19372  -0.00671   0.00000  -0.03552  -0.03466   2.15906
    A5        1.95787   0.00506   0.00000   0.02555   0.02228   1.98015
    A6        2.13152   0.00162   0.00000   0.00929   0.01008   2.14160
    A7        2.23418  -0.00385   0.00000  -0.01237  -0.01180   2.22239
    A8        1.86402   0.01031   0.00000   0.04227   0.04113   1.90515
    A9        2.17837  -0.00634   0.00000  -0.02781  -0.02747   2.15090
   A10        2.02861  -0.00901   0.00000  -0.02783  -0.02929   1.99932
   A11        2.17631  -0.00145   0.00000  -0.01774  -0.01732   2.15899
   A12        2.07444   0.01060   0.00000   0.04816   0.04875   2.12319
   A13        1.60521  -0.00341   0.00000  -0.01765  -0.02072   1.58448
    D1       -2.97607  -0.00354   0.00000  -0.07028  -0.07082  -3.04688
    D2        0.15267  -0.00611   0.00000  -0.13037  -0.13030   0.02236
    D3        0.19508  -0.00271   0.00000  -0.04679  -0.04704   0.14804
    D4       -2.95937  -0.00528   0.00000  -0.10688  -0.10653  -3.06590
    D5       -0.06122   0.00202   0.00000   0.04680   0.04738  -0.01383
    D6       -3.10756  -0.00032   0.00000   0.01199   0.01359  -3.09397
    D7        3.05201   0.00104   0.00000   0.02329   0.02280   3.07481
    D8        0.00566  -0.00129   0.00000  -0.01153  -0.01099  -0.00533
    D9       -0.15254   0.00522   0.00000   0.13310   0.13342  -0.01912
   D10        2.97672   0.00269   0.00000   0.07508   0.07423   3.05095
   D11        2.97262   0.00220   0.00000   0.06504   0.06574   3.03836
   D12       -0.25837   0.00379   0.00000   0.09423   0.09508  -0.16329
   D13       -0.04903   0.00137   0.00000   0.04746   0.04863  -0.00040
   D14        3.00317   0.00295   0.00000   0.07665   0.07797   3.08114
   D15        0.11431  -0.00479   0.00000  -0.10456  -0.10353   0.01079
   D16       -2.91220  -0.00576   0.00000  -0.12254  -0.12087  -3.03307
         Item               Value     Threshold  Converged?
 Maximum Force            0.055060     0.000450     NO 
 RMS     Force            0.015074     0.000300     NO 
 Maximum Displacement     0.224462     0.001800     NO 
 RMS     Displacement     0.063855     0.001200     NO 
 Predicted change in Energy=-1.518492D-02
 Lowest energy point so far.  Saving SCF results.
 GradGradGradGradGradGradGradGradGradGradGradGradGradGradGradGradGradGrad

 Leave Link  103 at Fri Apr  8 10:23:11 2016, MaxMem=    33554432 cpu:         0.0
 (Enter /home/dustin/Applications/g09/g09/l202.exe)
                          Input orientation:                          
 ---------------------------------------------------------------------
 Center     Atomic      Atomic             Coordinates (Angstroms)
 Number     Number       Type             X           Y           Z
 ---------------------------------------------------------------------
      1          6           0        0.881855   -0.708926   -0.037682
      2          6           0       -0.402893   -1.211062   -0.028272
      3          6           0       -0.345021    1.310923    0.043552
      4          6           0        0.899861    0.723900    0.013290
      5          1           0        1.810051    1.317836   -0.027951
      6          1           0       -0.569849    2.349231    0.169989
      7          1           0       -0.632123   -2.255390    0.023475
      8          1           0        1.773795   -1.317713   -0.126316
      9         16           0       -1.618105    0.012698    0.006098
 ---------------------------------------------------------------------
                    Distance matrix (angstroms):
                    1          2          3          4          5
     1  C    0.000000
     2  C    1.379422   0.000000
     3  C    2.364659   2.523671   0.000000
     4  C    1.433845   2.333018   1.376678   0.000000
     5  H    2.229217   3.360423   2.156269   1.087615   0.000000
     6  H    3.391591   3.569715   1.069868   2.196884   2.601322
     7  H    2.165045   1.070441   3.577907   3.350112   4.328372
     8  H    1.083529   2.181503   3.380527   2.225182   2.637633
     9  S    2.602394   1.724967   1.818662   2.616488   3.668351
                    6          7          8          9
     6  H    0.000000
     7  H    4.607372   0.000000
     8  H    4.361988   2.586526   0.000000
     9  S    2.566142   2.473193   3.645890   0.000000
 Stoichiometry    C4H4S
 Framework group  C1[X(C4H4S)]
 Deg. of freedom    21
 Full point group                 C1      NOp   1
 RotChk:  IX=3 Diff= 1.01D-01
 Largest Abelian subgroup         C1      NOp   1
 Largest concise Abelian subgroup C1      NOp   1
                         Standard orientation:                         
 ---------------------------------------------------------------------
 Center     Atomic      Atomic             Coordinates (Angstroms)
 Number     Number       Type             X           Y           Z
 ---------------------------------------------------------------------
      1          6           0       -1.246087    0.780829   -0.000100
      2          6           0        0.057255    1.232519    0.008918
      3          6           0       -0.097910   -1.286367    0.001368
      4          6           0       -1.319265   -0.651136    0.005582
      5          1           0       -2.252296   -1.207918   -0.042924
      6          1           0        0.087768   -2.336102    0.091909
      7          1           0        0.327539    2.265027    0.090877
      8          1           0       -2.114613    1.426076   -0.058018
      9         16           0        1.224227   -0.037635   -0.011028
 ---------------------------------------------------------------------
 Rotational constants (GHZ):      7.8049846      5.2007455      3.1220905
 Leave Link  202 at Fri Apr  8 10:23:11 2016, MaxMem=    33554432 cpu:         0.0
 (Enter /home/dustin/Applications/g09/g09/l301.exe)

 Semi-emprical parameters in input format:
 Method=8 CoreType=1 PeptideFC=0.0121077625 RIJScale=0.5148421843
 ****
 H       
 PQN=1 NValence=1 F0ss=0.3861905212 ZetaOverlap=1.2496120360 U=-0.4188110042
 Beta=-0.2369859586 CoreKO=1.0579003764 KON=0,0,0,1.0589197790 KON=1,0,1,1.0497731350
 KON=0,1,1,1.0019787936 KON=2,1,1,1.0303754612 EISol=-0.4188110042 EHeat=0.0830298228
 Alpha=1.5411457947
 GCore=0.0082680393,1.3799011174,2.2676713595
 GCore=0.0003656320,1.3109146540,3.3684245479
 GCore=-0.0012900288,0.5906486780,3.9242493919
 ****
 C       
 PQN=2,2 NValence=4 F0ss=0.5341278571 F0sp=0.3848580628 F0pp=0.4186252881 F2pp=0.1960977238
 G1sp=0.2549607877
 ZetaOverlap=1.7888907992,1.5900900460
 U=-1.9120180828,-1.5193343571
 Beta=-0.6167809829,-0.2849048578 DDN=0,1,0.8102100380 DDN=1,1,0.6820171242
 CoreKO=1.0304091322 KON=0,0,0,1.0906754025 KON=1,0,1,0.8098642350 KON=0,1,1,1.0295078685
 KON=2,1,1,0.7580621091 EISol=-4.4398989268 EHeat=0.2723305520 Alpha=1.3929601747
 DipHyp=1.6203268518
 GCore=0.0007908418,1.3753946001,2.8862491072
 GCore=0.0040442674,1.4337860813,3.1243303050
 GCore=-0.0011809165,1.2972620337,3.8739385724
 GCore=-0.0000896351,1.4220637298,4.9827618837
 ****
 S       
 PQN=3,3 NValence=6 F0ss=0.4231238846 F0sp=0.3183640731 F0pp=0.3136271218 F2pp=0.3513050233
 G1sp=0.2461258931
 ZetaOverlap=2.1664799235,1.4222069465,0.9376044970
 U=-2.0834683120,-1.8359407715
 Beta=-0.1301172936,-0.2928210956 DDN=0,1,0.9004265000 DDN=1,1,1.0069068502
 CoreKO=1.1087944437 KON=0,0,0,1.1203815822 KON=1,0,1,0.7811934487 KON=0,1,1,1.0648909719
 KON=2,1,1,0.8270286475 EISol=-7.0460287497 EHeat=0.1058151363 Alpha=1.3026480172
 DipHyp=1.8007493954
 GCore=-0.0361455890,1.2555382754,1.6063090732
 GCore=-0.0006608381,1.6425719595,3.3504655668
 GCore=0.0008177898,3.6591110164,3.7967867236
 ****
 
 Standard basis: VSTO-6G (5D, 7F)
 Ernie: Thresh=  0.10000D-02 Tol=  0.10000D-05 Strict=F.
  NNHCO=     0 NNPyr=     0 NCTC=     0               EPep=         0.000000000
    EC=        64.003806937  ECS=         1.649158687   EG=         0.204453753
   EHC=         0.000000000  EAt=       -26.480868474  AtH=         1.527256636
 EPDDG=         0.000000000  ECC=        65.857419377 EAtT=        28.008125109
 There are    24 symmetry adapted cartesian basis functions of A   symmetry.
 There are    24 symmetry adapted basis functions of A   symmetry.
    24 basis functions,   144 primitive gaussians,    24 cartesian basis functions
    13 alpha electrons       13 beta electrons
       nuclear repulsion energy        93.8655444866 Hartrees.
 IExCor=    0 DFT=F Ex=HF Corr=None ExCW=0 ScaHFX=  1.000000
 ScaDFX=  1.000000  1.000000  1.000000  1.000000 ScalE2=  1.000000  1.000000
 IRadAn=      0 IRanWt=     -1 IRanGd=            0 ICorTp=0 IEmpDi=  4
 Integral buffers will be    131072 words long.
 Regular integral format.
 Two-electron integral symmetry is turned off.
 Leave Link  301 at Fri Apr  8 10:23:11 2016, MaxMem=    33554432 cpu:         0.0
 (Enter /home/dustin/Applications/g09/g09/l302.exe)
 Do NDO integrals.
 NPDir=0 NMtPBC=     1 NCelOv=     1 NCel=       1 NClECP=     1 NCelD=      1
         NCelK=      1 NCelE2=     1 NClLst=     1 CellRange=     0.0.
 One-electron integrals computed using PRISM.
 NBasis=    24 RedAO= F EigKep=  0.00D+00  NBF=    24
 NBsUse=    24 1.00D-04 EigRej=  0.00D+00 NBFU=    24
 Leave Link  302 at Fri Apr  8 10:23:11 2016, MaxMem=    33554432 cpu:         0.0
 (Enter /home/dustin/Applications/g09/g09/l303.exe)
 DipDrv:  MaxL=1.
 Leave Link  303 at Fri Apr  8 10:23:11 2016, MaxMem=    33554432 cpu:         0.0
 (Enter /home/dustin/Applications/g09/g09/l401.exe)
 Initial guess from the checkpoint file:  "saddle.chk"
 B after Tr=     0.000000    0.000000    0.000000
         Rot=    0.999589   -0.000152    0.000395   -0.028675 Ang=  -3.29 deg.
 Guess basis will be translated and rotated to current coordinates.
 JPrj=0 DoOrth=T DoCkMO=T.
 Leave Link  401 at Fri Apr  8 10:23:11 2016, MaxMem=    33554432 cpu:         0.0
 (Enter /home/dustin/Applications/g09/g09/l502.exe)
 Closed shell SCF:
 Using DIIS extrapolation, IDIIS=  1040.
 Overlap will be assumed to be unity.
 Two-electron integral symmetry not used.
 Keep J ints in memory in canonical form, NReq=888082.
 IVT=       79475 IEndB=       79475 NGot=    33554432 MDV=    33473473
 LenX=    33473473 LenY=    33472456
 Requested convergence on RMS density matrix=1.00D-08 within 128 cycles.
 Requested convergence on MAX density matrix=1.00D-06.
 Requested convergence on             energy=1.00D-06.
 No special actions if energy rises.
 FoFCou: FMM=F IPFlag=           0 FMFlag=           0 FMFlg1=           0
         NFxFlg=           0 DoJE=F BraDBF=F KetDBF=F FulRan=T
         wScrn=  0.000000 ICntrl=     600 IOpCl=  2 I1Cent=           0 NGrid=           0
         NMat0=    1 NMatS0=     54 NMatT0=    0 NMatD0=    1 NMtDS0=    0 NMtDT0=    0
 Symmetry not used in FoFCou.

 Cycle   1  Pass 1  IDiag  1:
 E=-0.962317234471485    
 DIIS: error= 7.07D-03 at cycle   1 NSaved=   1.
 NSaved= 1 IEnMin= 1 EnMin=-0.962317234471485     IErMin= 1 ErrMin= 7.07D-03
 ErrMax= 7.07D-03  0.00D+00 EMaxC= 1.00D-01 BMatC= 2.29D-03 BMatP= 2.29D-03
 IDIUse=3 WtCom= 9.29D-01 WtEn= 7.07D-02
 Coeff-Com:  0.100D+01
 Coeff-En:   0.100D+01
 Coeff:      0.100D+01
 GapD=    2.000 DampG=2.000 DampE=1.000 DampFc=2.0000 IDamp=-1.
 RMSDP=3.86D-03 MaxDP=1.93D-02              OVMax= 0.00D+00

 Cycle   2  Pass 1  IDiag  3:
 E=-0.970409126101430     Delta-E=       -0.008091891630 Rises=F Damp=F
 DIIS: error= 3.29D-03 at cycle   2 NSaved=   2.
 NSaved= 2 IEnMin= 2 EnMin=-0.970409126101430     IErMin= 2 ErrMin= 3.29D-03
 ErrMax= 3.29D-03  0.00D+00 EMaxC= 1.00D-01 BMatC= 3.44D-04 BMatP= 2.29D-03
 IDIUse=3 WtCom= 9.67D-01 WtEn= 3.29D-02
 Coeff-Com: -0.471D+00 0.147D+01
 Coeff-En:   0.000D+00 0.100D+01
 Coeff:     -0.456D+00 0.146D+01
 Gap=     0.364 Goal=   None    Shift=    0.000
 RMSDP=2.75D-03 MaxDP=1.40D-02 DE=-8.09D-03 OVMax= 1.46D-02

 Cycle   3  Pass 1  IDiag  3:
 E=-0.972516958624581     Delta-E=       -0.002107832523 Rises=F Damp=F
 DIIS: error= 8.56D-04 at cycle   3 NSaved=   3.
 NSaved= 3 IEnMin= 3 EnMin=-0.972516958624581     IErMin= 3 ErrMin= 8.56D-04
 ErrMax= 8.56D-04  0.00D+00 EMaxC= 1.00D-01 BMatC= 2.85D-05 BMatP= 3.44D-04
 IDIUse=3 WtCom= 9.91D-01 WtEn= 8.56D-03
 Coeff-Com:  0.248D+00-0.979D+00 0.173D+01
 Coeff-En:   0.000D+00 0.000D+00 0.100D+01
 Coeff:      0.246D+00-0.971D+00 0.172D+01
 Gap=     0.364 Goal=   None    Shift=    0.000
 RMSDP=1.27D-03 MaxDP=5.83D-03 DE=-2.11D-03 OVMax= 8.88D-03

 Cycle   4  Pass 1  IDiag  3:
 E=-0.972772002407893     Delta-E=       -0.000255043783 Rises=F Damp=F
 DIIS: error= 1.49D-04 at cycle   4 NSaved=   4.
 NSaved= 4 IEnMin= 4 EnMin=-0.972772002407893     IErMin= 4 ErrMin= 1.49D-04
 ErrMax= 1.49D-04  0.00D+00 EMaxC= 1.00D-01 BMatC= 1.05D-06 BMatP= 2.85D-05
 IDIUse=3 WtCom= 9.99D-01 WtEn= 1.49D-03
 Coeff-Com: -0.119D+00 0.484D+00-0.958D+00 0.159D+01
 Coeff-En:   0.000D+00 0.000D+00 0.000D+00 0.100D+01
 Coeff:     -0.119D+00 0.483D+00-0.957D+00 0.159D+01
 Gap=     0.365 Goal=   None    Shift=    0.000
 RMSDP=2.58D-04 MaxDP=1.35D-03 DE=-2.55D-04 OVMax= 2.18D-03

 Cycle   5  Pass 1  IDiag  3:
 E=-0.972782495869353     Delta-E=       -0.000010493461 Rises=F Damp=F
 DIIS: error= 3.61D-05 at cycle   5 NSaved=   5.
 NSaved= 5 IEnMin= 5 EnMin=-0.972782495869353     IErMin= 5 ErrMin= 3.61D-05
 ErrMax= 3.61D-05  0.00D+00 EMaxC= 1.00D-01 BMatC= 7.70D-08 BMatP= 1.05D-06
 IDIUse=1 WtCom= 1.00D+00 WtEn= 0.00D+00
 Coeff-Com:  0.192D-01-0.798D-01 0.176D+00-0.528D+00 0.141D+01
 Coeff:      0.192D-01-0.798D-01 0.176D+00-0.528D+00 0.141D+01
 Gap=     0.365 Goal=   None    Shift=    0.000
 RMSDP=7.03D-05 MaxDP=3.51D-04 DE=-1.05D-05 OVMax= 6.16D-04

 Cycle   6  Pass 1  IDiag  3:
 E=-0.972783253738783     Delta-E=       -0.000000757869 Rises=F Damp=F
 DIIS: error= 9.35D-06 at cycle   6 NSaved=   6.
 NSaved= 6 IEnMin= 6 EnMin=-0.972783253738783     IErMin= 6 ErrMin= 9.35D-06
 ErrMax= 9.35D-06  0.00D+00 EMaxC= 1.00D-01 BMatC= 5.98D-09 BMatP= 7.70D-08
 IDIUse=1 WtCom= 1.00D+00 WtEn= 0.00D+00
 Coeff-Com:  0.348D-02-0.135D-01 0.198D-01 0.586D-01-0.530D+00 0.146D+01
 Coeff:      0.348D-02-0.135D-01 0.198D-01 0.586D-01-0.530D+00 0.146D+01
 Gap=     0.365 Goal=   None    Shift=    0.000
 RMSDP=1.90D-05 MaxDP=8.93D-05 DE=-7.58D-07 OVMax= 1.59D-04

 Cycle   7  Pass 1  IDiag  3:
 E=-0.972783307001251     Delta-E=       -0.000000053262 Rises=F Damp=F
 DIIS: error= 2.19D-06 at cycle   7 NSaved=   7.
 NSaved= 7 IEnMin= 7 EnMin=-0.972783307001251     IErMin= 7 ErrMin= 2.19D-06
 ErrMax= 2.19D-06  0.00D+00 EMaxC= 1.00D-01 BMatC= 3.00D-10 BMatP= 5.98D-09
 IDIUse=1 WtCom= 1.00D+00 WtEn= 0.00D+00
 Coeff-Com: -0.273D-02 0.108D-01-0.192D-01 0.466D-02 0.151D+00-0.621D+00
 Coeff-Com:  0.148D+01
 Coeff:     -0.273D-02 0.108D-01-0.192D-01 0.466D-02 0.151D+00-0.621D+00
 Coeff:      0.148D+01
 Gap=     0.365 Goal=   None    Shift=    0.000
 RMSDP=3.76D-06 MaxDP=1.99D-05 DE=-5.33D-08 OVMax= 2.77D-05

 Cycle   8  Pass 1  IDiag  3:
 E=-0.972783309463750     Delta-E=       -0.000000002462 Rises=F Damp=F
 DIIS: error= 5.89D-07 at cycle   8 NSaved=   8.
 NSaved= 8 IEnMin= 8 EnMin=-0.972783309463750     IErMin= 8 ErrMin= 5.89D-07
 ErrMax= 5.89D-07  0.00D+00 EMaxC= 1.00D-01 BMatC= 2.08D-11 BMatP= 3.00D-10
 IDIUse=1 WtCom= 1.00D+00 WtEn= 0.00D+00
 Coeff-Com:  0.971D-03-0.387D-02 0.706D-02-0.405D-02-0.412D-01 0.202D+00
 Coeff-Com: -0.652D+00 0.149D+01
 Coeff:      0.971D-03-0.387D-02 0.706D-02-0.405D-02-0.412D-01 0.202D+00
 Coeff:     -0.652D+00 0.149D+01
 Gap=     0.365 Goal=   None    Shift=    0.000
 RMSDP=9.81D-07 MaxDP=6.18D-06 DE=-2.46D-09 OVMax= 9.85D-06

 Cycle   9  Pass 1  IDiag  3:
 E=-0.972783309649401     Delta-E=       -0.000000000186 Rises=F Damp=F
 DIIS: error= 2.27D-07 at cycle   9 NSaved=   9.
 NSaved= 9 IEnMin= 9 EnMin=-0.972783309649401     IErMin= 9 ErrMin= 2.27D-07
 ErrMax= 2.27D-07  0.00D+00 EMaxC= 1.00D-01 BMatC= 2.17D-12 BMatP= 2.08D-11
 IDIUse=1 WtCom= 1.00D+00 WtEn= 0.00D+00
 Coeff-Com: -0.705D-04 0.286D-03-0.580D-03 0.937D-03-0.264D-03-0.119D-01
 Coeff-Com:  0.945D-01-0.551D+00 0.147D+01
 Coeff:     -0.705D-04 0.286D-03-0.580D-03 0.937D-03-0.264D-03-0.119D-01
 Coeff:      0.945D-01-0.551D+00 0.147D+01
 Gap=     0.365 Goal=   None    Shift=    0.000
 RMSDP=3.73D-07 MaxDP=2.07D-06 DE=-1.86D-10 OVMax= 4.03D-06

 Cycle  10  Pass 1  IDiag  3:
 E=-0.972783309671584     Delta-E=       -0.000000000022 Rises=F Damp=F
 DIIS: error= 7.04D-08 at cycle  10 NSaved=  10.
 NSaved=10 IEnMin=10 EnMin=-0.972783309671584     IErMin=10 ErrMin= 7.04D-08
 ErrMax= 7.04D-08  0.00D+00 EMaxC= 1.00D-01 BMatC= 2.11D-13 BMatP= 2.17D-12
 IDIUse=1 WtCom= 1.00D+00 WtEn= 0.00D+00
 Coeff-Com: -0.626D-04 0.249D-03-0.430D-03 0.115D-04 0.393D-02-0.130D-01
 Coeff-Com:  0.144D-01 0.136D+00-0.737D+00 0.160D+01
 Coeff:     -0.626D-04 0.249D-03-0.430D-03 0.115D-04 0.393D-02-0.130D-01
 Coeff:      0.144D-01 0.136D+00-0.737D+00 0.160D+01
 Gap=     0.365 Goal=   None    Shift=    0.000
 RMSDP=1.30D-07 MaxDP=9.08D-07 DE=-2.22D-11 OVMax= 1.38D-06

 Cycle  11  Pass 1  IDiag  3:
 E=-0.972783309674085     Delta-E=       -0.000000000003 Rises=F Damp=F
 DIIS: error= 2.02D-08 at cycle  11 NSaved=  11.
 NSaved=11 IEnMin=11 EnMin=-0.972783309674085     IErMin=11 ErrMin= 2.02D-08
 ErrMax= 2.02D-08  0.00D+00 EMaxC= 1.00D-01 BMatC= 1.58D-14 BMatP= 2.11D-13
 IDIUse=1 WtCom= 1.00D+00 WtEn= 0.00D+00
 Coeff-Com:  0.364D-04-0.145D-03 0.252D-03-0.380D-04-0.209D-02 0.760D-02
 Coeff-Com: -0.140D-01-0.306D-01 0.272D+00-0.816D+00 0.158D+01
 Coeff:      0.364D-04-0.145D-03 0.252D-03-0.380D-04-0.209D-02 0.760D-02
 Coeff:     -0.140D-01-0.306D-01 0.272D+00-0.816D+00 0.158D+01
 Gap=     0.365 Goal=   None    Shift=    0.000
 RMSDP=3.47D-08 MaxDP=2.32D-07 DE=-2.50D-12 OVMax= 3.88D-07

 Cycle  12  Pass 1  IDiag  3:
 E=-0.972783309674298     Delta-E=        0.000000000000 Rises=F Damp=F
 DIIS: error= 5.14D-09 at cycle  12 NSaved=  12.
 NSaved=12 IEnMin=12 EnMin=-0.972783309674298     IErMin=12 ErrMin= 5.14D-09
 ErrMax= 5.14D-09  0.00D+00 EMaxC= 1.00D-01 BMatC= 1.34D-15 BMatP= 1.58D-14
 IDIUse=1 WtCom= 1.00D+00 WtEn= 0.00D+00
 Coeff-Com: -0.113D-04 0.448D-04-0.778D-04 0.841D-05 0.669D-03-0.250D-02
 Coeff-Com:  0.551D-02 0.877D-03-0.543D-01 0.219D+00-0.712D+00 0.154D+01
 Coeff:     -0.113D-04 0.448D-04-0.778D-04 0.841D-05 0.669D-03-0.250D-02
 Coeff:      0.551D-02 0.877D-03-0.543D-01 0.219D+00-0.712D+00 0.154D+01
 Gap=     0.365 Goal=   None    Shift=    0.000
 RMSDP=1.00D-08 MaxDP=5.27D-08 DE=-2.13D-13 OVMax= 1.10D-07

 Cycle  13  Pass 2  IDiag  1:
 SCF Done:  E(RAM1) = -0.972783309674     A.U. after   13 cycles
            NFock= 12  Conv=0.10D-07     -V/T= 0.9398
 KE=-1.615605810302D+01 PE=-1.551338868946D+02 EE= 7.645161720133D+01
 Leave Link  502 at Fri Apr  8 10:23:11 2016, MaxMem=    33554432 cpu:         0.0
 (Enter /home/dustin/Applications/g09/g09/l701.exe)
 Compute integral first derivatives.
 ... and contract with generalized density number  0.
 Leave Link  701 at Fri Apr  8 10:23:11 2016, MaxMem=    33554432 cpu:         0.0
 (Enter /home/dustin/Applications/g09/g09/l702.exe)
 L702 exits ... SP integral derivatives will be done elsewhere.
 Leave Link  702 at Fri Apr  8 10:23:11 2016, MaxMem=    33554432 cpu:         0.0
 (Enter /home/dustin/Applications/g09/g09/l703.exe)
 Compute integral first derivatives, UseDBF=F ICtDFT=           0.
 Integral derivatives from FoFJK, PRISM(SPDF).
 Calling FoFJK, ICntrl=      2127 FMM=F ISym2X=0 I1Cent= 0 IOpClX= 0 NMat=1 NMatS=1 NMatT=0.
 FoFJK:  IHMeth= 8 ICntrl=    2127 DoSepK=F KAlg= 0 I1Cent=   0 FoldK=F
 IRaf=         0 NMat=   1 IRICut=       1 DoRegI=T DoRafI=F ISym2E= 0.
 FoFCou: FMM=F IPFlag=           0 FMFlag=      100000 FMFlg1=         800
         NFxFlg=           0 DoJE=F BraDBF=F KetDBF=F FulRan=T
         wScrn=  0.000000 ICntrl=    2127 IOpCl=  0 I1Cent=           0 NGrid=           0
         NMat0=    1 NMatS0=      1 NMatT0=    0 NMatD0=    1 NMtDS0=    0 NMtDT0=    0
 Symmetry not used in FoFCou.
 Leave Link  703 at Fri Apr  8 10:23:11 2016, MaxMem=    33554432 cpu:         0.0
 (Enter /home/dustin/Applications/g09/g09/l716.exe)
 Dipole        =-7.47989525D-02-1.48420732D-02 1.70128263D-02
 ***** Axes restored to original set *****
 -------------------------------------------------------------------
 Center     Atomic                   Forces (Hartrees/Bohr)
 Number     Number              X              Y              Z
 -------------------------------------------------------------------
      1        6          -0.011551808   -0.004119007   -0.004278736
      2        6           0.030786216   -0.011304555    0.003890864
      3        6           0.014117229   -0.015947778    0.005752096
      4        6          -0.006189937    0.018208595   -0.005530273
      5        1          -0.000640411   -0.004968178    0.002784692
      6        1          -0.001405402    0.001960069   -0.004080559
      7        1          -0.002837421   -0.006161215   -0.003725965
      8        1          -0.001235800    0.002384239    0.003187912
      9       16          -0.021042665    0.019947830    0.001999970
 -------------------------------------------------------------------
 Cartesian Forces:  Max     0.030786216 RMS     0.010756396
 Leave Link  716 at Fri Apr  8 10:23:11 2016, MaxMem=    33554432 cpu:         0.0
 (Enter /home/dustin/Applications/g09/g09/l103.exe)

 GradGradGradGradGradGradGradGradGradGradGradGradGradGradGradGradGradGrad
 Berny optimization.
 Using GEDIIS/GDIIS optimizer.
 FormGI is forming the generalized inverse of G from B-inverse, IUseBI=4.
 Internal  Forces:  Max     0.023852280 RMS     0.005452957
 Search for a local minimum.
 Step number   2 out of a maximum of   48
 All quantities printed in internal units (Hartrees-Bohrs-Radians)
 RMS Force = .54530D-02 SwitMx=.10000D-02 MixMth= 1
 Mixed Optimization -- RFO/linear search
 Update second derivatives using D2CorX and points    1    2
 DE= -1.50D-02 DEPred=-1.52D-02 R= 9.85D-01
 TightC=F SS=  1.41D+00  RLast= 4.08D-01 DXNew= 5.0454D-01 1.2253D+00
 Trust test= 9.85D-01 RLast= 4.08D-01 DXMaxT set to 5.05D-01
 ITU=  1  0
 Use linear search instead of GDIIS.
     Eigenvalues ---    0.01632   0.01914   0.02057   0.02242   0.02345
     Eigenvalues ---    0.02428   0.15375   0.15921   0.15975   0.16177
     Eigenvalues ---    0.20599   0.22572   0.24943   0.28608   0.32625
     Eigenvalues ---    0.34058   0.35866   0.40703   0.42858   0.47767
     Eigenvalues ---    0.53795
 RFO step:  Lambda=-5.06630150D-03 EMin= 1.63233012D-02
 Quartic linear search produced a step of  0.17260.
 Iteration  1 RMS(Cart)=  0.03697857 RMS(Int)=  0.00181116
 Iteration  2 RMS(Cart)=  0.00161145 RMS(Int)=  0.00079934
 Iteration  3 RMS(Cart)=  0.00000252 RMS(Int)=  0.00079934
 Iteration  4 RMS(Cart)=  0.00000000 RMS(Int)=  0.00079934
 ITry= 1 IFail=0 DXMaxC= 1.21D-01 DCOld= 1.00D+10 DXMaxT= 5.05D-01 DXLimC= 3.00D+00 Rises=F
 Variable       Old X    -DE/DX   Delta X   Delta X   Delta X     New X
                                 (Linear)    (Quad)   (Total)
    R1        2.60673  -0.00965  -0.00660  -0.02237  -0.02937   2.57736
    R2        2.70958   0.00271   0.01855   0.00311   0.02162   2.73120
    R3        2.04757  -0.00262   0.00973  -0.00861   0.00112   2.04869
    R4        2.02284   0.00644  -0.02481   0.02838   0.00356   2.02640
    R5        3.25972   0.02385   0.01634   0.07126   0.08731   3.34703
    R6        2.60155  -0.01247   0.00114  -0.03079  -0.02927   2.57228
    R7        2.02176   0.00172  -0.00555   0.00619   0.00063   2.02239
    R8        3.43677   0.00022   0.00194   0.00022   0.00248   3.43925
    R9        2.05529  -0.00335  -0.00575  -0.01092  -0.01667   2.03862
    A1        1.95542   0.00431   0.00015   0.02035   0.02011   1.97553
    A2        2.16846  -0.00072  -0.00450   0.00128  -0.00322   2.16524
    A3        2.15799  -0.00354   0.00419  -0.02015  -0.01594   2.14205
    A4        2.15906   0.00351  -0.00598   0.02073   0.01415   2.17321
    A5        1.98015  -0.00397   0.00385  -0.01387  -0.01137   1.96878
    A6        2.14160   0.00056   0.00174  -0.00154  -0.00040   2.14120
    A7        2.22239  -0.00225  -0.00204  -0.00140  -0.00573   2.21666
    A8        1.90515   0.00692   0.00710   0.02895   0.03504   1.94019
    A9        2.15090  -0.00444  -0.00474  -0.01756  -0.02458   2.12631
   A10        1.99932  -0.00098  -0.00506  -0.01364  -0.01847   1.98085
   A11        2.15899  -0.00335  -0.00299  -0.01848  -0.02205   2.13695
   A12        2.12319   0.00439   0.00841   0.03414   0.04203   2.16522
   A13        1.58448  -0.00627  -0.00358  -0.02182  -0.02510   1.55938
    D1       -3.04688  -0.00201  -0.01222  -0.08332  -0.09602   3.14028
    D2        0.02236  -0.00049  -0.02249  -0.00265  -0.02513  -0.00277
    D3        0.14804  -0.00275  -0.00812  -0.11290  -0.12115   0.02689
    D4       -3.06590  -0.00123  -0.01839  -0.03223  -0.05027  -3.11617
    D5       -0.01383   0.00042   0.00818   0.01294   0.02129   0.00746
    D6       -3.09397  -0.00096   0.00235  -0.02526  -0.02147  -3.11544
    D7        3.07481   0.00126   0.00393   0.04306   0.04647   3.12128
    D8       -0.00533  -0.00012  -0.00190   0.00487   0.00372  -0.00162
    D9       -0.01912   0.00033   0.02303  -0.00537   0.01753  -0.00159
   D10        3.05095   0.00197   0.01281   0.07544   0.08763   3.13858
   D11        3.03836   0.00199   0.01135   0.09007   0.10182   3.14018
   D12       -0.16329   0.00304   0.01641   0.12539   0.14284  -0.02045
   D13       -0.00040  -0.00033   0.00839  -0.01692  -0.00804  -0.00844
   D14        3.08114   0.00072   0.01346   0.01840   0.03297   3.11411
   D15        0.01079  -0.00001  -0.01787   0.01263  -0.00502   0.00577
   D16       -3.03307  -0.00233  -0.02086  -0.09006  -0.10937   3.14075
         Item               Value     Threshold  Converged?
 Maximum Force            0.023852     0.000450     NO 
 RMS     Force            0.005453     0.000300     NO 
 Maximum Displacement     0.120731     0.001800     NO 
 RMS     Displacement     0.037057     0.001200     NO 
 Predicted change in Energy=-3.071240D-03
 Lowest energy point so far.  Saving SCF results.
 GradGradGradGradGradGradGradGradGradGradGradGradGradGradGradGradGradGrad

 Leave Link  103 at Fri Apr  8 10:23:11 2016, MaxMem=    33554432 cpu:         0.0
 (Enter /home/dustin/Applications/g09/g09/l202.exe)
                          Input orientation:                          
 ---------------------------------------------------------------------
 Center     Atomic      Atomic             Coordinates (Angstroms)
 Number     Number       Type             X           Y           Z
 ---------------------------------------------------------------------
      1          6           0        0.871681   -0.705716   -0.035302
      2          6           0       -0.391204   -1.220336   -0.014013
      3          6           0       -0.338772    1.302719    0.070836
      4          6           0        0.898463    0.738674    0.008034
      5          1           0        1.818102    1.301642   -0.025548
      6          1           0       -0.569262    2.346974    0.112559
      7          1           0       -0.621186   -2.267378   -0.040414
      8          1           0        1.771168   -1.306826   -0.105366
      9         16           0       -1.641419    0.031743    0.065396
 ---------------------------------------------------------------------
                    Distance matrix (angstroms):
                    1          2          3          4          5
     1  C    0.000000
     2  C    1.363878   0.000000
     3  C    2.347396   2.525026   0.000000
     4  C    1.445288   2.345517   1.361191   0.000000
     5  H    2.219300   3.352840   2.159027   1.078794   0.000000
     6  H    3.378919   3.573994   1.070204   2.179856   2.609847
     7  H    2.160432   1.072327   3.582977   3.368684   4.322990
     8  H    1.084121   2.166028   3.360448   2.226779   2.610110
     9  S    2.621003   1.771171   1.819972   2.637052   3.686353
                    6          7          8          9
     6  H    0.000000
     7  H    4.617179   0.000000
     8  H    4.344578   2.578805   0.000000
     9  S    2.551870   2.517544   3.669696   0.000000
 Stoichiometry    C4H4S
 Framework group  C1[X(C4H4S)]
 Deg. of freedom    21
 Full point group                 C1      NOp   1
 RotChk:  IX=2 Diff= 4.20D-02
 Largest Abelian subgroup         C1      NOp   1
 Largest concise Abelian subgroup C1      NOp   1
                         Standard orientation:                         
 ---------------------------------------------------------------------
 Center     Atomic      Atomic             Coordinates (Angstroms)
 Number     Number       Type             X           Y           Z
 ---------------------------------------------------------------------
      1          6           0       -1.260163    0.757647    0.004568
      2          6           0        0.011768    1.249933    0.001385
      3          6           0       -0.083096   -1.273309    0.004009
      4          6           0       -1.311409   -0.686727    0.000732
      5          1           0       -2.241593   -1.232685   -0.021266
      6          1           0        0.129873   -2.322108    0.003396
      7          1           0        0.259501    2.293251    0.002246
      8          1           0       -2.150529    1.375831   -0.015845
      9         16           0        1.241260   -0.024972   -0.002043
 ---------------------------------------------------------------------
 Rotational constants (GHZ):      7.7815615      5.1221543      3.0889527
 Leave Link  202 at Fri Apr  8 10:23:11 2016, MaxMem=    33554432 cpu:         0.0
 (Enter /home/dustin/Applications/g09/g09/l301.exe)

 Semi-emprical parameters in input format:
 Method=8 CoreType=1 PeptideFC=0.0121077625 RIJScale=0.5148421843
 ****
 H       
 PQN=1 NValence=1 F0ss=0.3861905212 ZetaOverlap=1.2496120360 U=-0.4188110042
 Beta=-0.2369859586 CoreKO=1.0579003764 KON=0,0,0,1.0589197790 KON=1,0,1,1.0497731350
 KON=0,1,1,1.0019787936 KON=2,1,1,1.0303754612 EISol=-0.4188110042 EHeat=0.0830298228
 Alpha=1.5411457947
 GCore=0.0082680393,1.3799011174,2.2676713595
 GCore=0.0003656320,1.3109146540,3.3684245479
 GCore=-0.0012900288,0.5906486780,3.9242493919
 ****
 C       
 PQN=2,2 NValence=4 F0ss=0.5341278571 F0sp=0.3848580628 F0pp=0.4186252881 F2pp=0.1960977238
 G1sp=0.2549607877
 ZetaOverlap=1.7888907992,1.5900900460
 U=-1.9120180828,-1.5193343571
 Beta=-0.6167809829,-0.2849048578 DDN=0,1,0.8102100380 DDN=1,1,0.6820171242
 CoreKO=1.0304091322 KON=0,0,0,1.0906754025 KON=1,0,1,0.8098642350 KON=0,1,1,1.0295078685
 KON=2,1,1,0.7580621091 EISol=-4.4398989268 EHeat=0.2723305520 Alpha=1.3929601747
 DipHyp=1.6203268518
 GCore=0.0007908418,1.3753946001,2.8862491072
 GCore=0.0040442674,1.4337860813,3.1243303050
 GCore=-0.0011809165,1.2972620337,3.8739385724
 GCore=-0.0000896351,1.4220637298,4.9827618837
 ****
 S       
 PQN=3,3 NValence=6 F0ss=0.4231238846 F0sp=0.3183640731 F0pp=0.3136271218 F2pp=0.3513050233
 G1sp=0.2461258931
 ZetaOverlap=2.1664799235,1.4222069465,0.9376044970
 U=-2.0834683120,-1.8359407715
 Beta=-0.1301172936,-0.2928210956 DDN=0,1,0.9004265000 DDN=1,1,1.0069068502
 CoreKO=1.1087944437 KON=0,0,0,1.1203815822 KON=1,0,1,0.7811934487 KON=0,1,1,1.0648909719
 KON=2,1,1,0.8270286475 EISol=-7.0460287497 EHeat=0.1058151363 Alpha=1.3026480172
 DipHyp=1.8007493954
 GCore=-0.0361455890,1.2555382754,1.6063090732
 GCore=-0.0006608381,1.6425719595,3.3504655668
 GCore=0.0008177898,3.6591110164,3.7967867236
 ****
 
 Standard basis: VSTO-6G (5D, 7F)
 Ernie: Thresh=  0.10000D-02 Tol=  0.10000D-05 Strict=F.
  NNHCO=     0 NNPyr=     0 NCTC=     0               EPep=         0.000000000
    EC=        63.879222058  ECS=         1.648502775   EG=         0.203599270
   EHC=         0.000000000  EAt=       -26.480868474  AtH=         1.527256636
 EPDDG=         0.000000000  ECC=        65.731324103 EAtT=        28.008125109
 There are    24 symmetry adapted cartesian basis functions of A   symmetry.
 There are    24 symmetry adapted basis functions of A   symmetry.
    24 basis functions,   144 primitive gaussians,    24 cartesian basis functions
    13 alpha electrons       13 beta electrons
       nuclear repulsion energy        93.7394492127 Hartrees.
 IExCor=    0 DFT=F Ex=HF Corr=None ExCW=0 ScaHFX=  1.000000
 ScaDFX=  1.000000  1.000000  1.000000  1.000000 ScalE2=  1.000000  1.000000
 IRadAn=      0 IRanWt=     -1 IRanGd=            0 ICorTp=0 IEmpDi=  4
 Integral buffers will be    131072 words long.
 Regular integral format.
 Two-electron integral symmetry is turned off.
 Leave Link  301 at Fri Apr  8 10:23:11 2016, MaxMem=    33554432 cpu:         0.0
 (Enter /home/dustin/Applications/g09/g09/l302.exe)
 Do NDO integrals.
 NPDir=0 NMtPBC=     1 NCelOv=     1 NCel=       1 NClECP=     1 NCelD=      1
         NCelK=      1 NCelE2=     1 NClLst=     1 CellRange=     0.0.
 One-electron integrals computed using PRISM.
 NBasis=    24 RedAO= F EigKep=  0.00D+00  NBF=    24
 NBsUse=    24 1.00D-04 EigRej=  0.00D+00 NBFU=    24
 Leave Link  302 at Fri Apr  8 10:23:11 2016, MaxMem=    33554432 cpu:         0.0
 (Enter /home/dustin/Applications/g09/g09/l303.exe)
 DipDrv:  MaxL=1.
 Leave Link  303 at Fri Apr  8 10:23:11 2016, MaxMem=    33554432 cpu:         0.0
 (Enter /home/dustin/Applications/g09/g09/l401.exe)
 Initial guess from the checkpoint file:  "saddle.chk"
 B after Tr=     0.000000    0.000000    0.000000
         Rot=    0.999956    0.000079    0.000058   -0.009372 Ang=   1.07 deg.
 Guess basis will be translated and rotated to current coordinates.
 JPrj=0 DoOrth=T DoCkMO=T.
 Leave Link  401 at Fri Apr  8 10:23:11 2016, MaxMem=    33554432 cpu:         0.0
 (Enter /home/dustin/Applications/g09/g09/l502.exe)
 Closed shell SCF:
 Using DIIS extrapolation, IDIIS=  1040.
 Overlap will be assumed to be unity.
 Two-electron integral symmetry not used.
 Keep J ints in memory in canonical form, NReq=888082.
 IVT=       79475 IEndB=       79475 NGot=    33554432 MDV=    33473473
 LenX=    33473473 LenY=    33472456
 Requested convergence on RMS density matrix=1.00D-08 within 128 cycles.
 Requested convergence on MAX density matrix=1.00D-06.
 Requested convergence on             energy=1.00D-06.
 No special actions if energy rises.
 FoFCou: FMM=F IPFlag=           0 FMFlag=           0 FMFlg1=           0
         NFxFlg=           0 DoJE=F BraDBF=F KetDBF=F FulRan=T
         wScrn=  0.000000 ICntrl=     600 IOpCl=  2 I1Cent=           0 NGrid=           0
         NMat0=    1 NMatS0=     54 NMatT0=    0 NMatD0=    1 NMtDS0=    0 NMtDT0=    0
 Symmetry not used in FoFCou.

 Cycle   1  Pass 1  IDiag  1:
 E=-0.973552751993452    
 DIIS: error= 3.12D-03 at cycle   1 NSaved=   1.
 NSaved= 1 IEnMin= 1 EnMin=-0.973552751993452     IErMin= 1 ErrMin= 3.12D-03
 ErrMax= 3.12D-03  0.00D+00 EMaxC= 1.00D-01 BMatC= 5.71D-04 BMatP= 5.71D-04
 IDIUse=3 WtCom= 9.69D-01 WtEn= 3.12D-02
 Coeff-Com:  0.100D+01
 Coeff-En:   0.100D+01
 Coeff:      0.100D+01
 GapD=    2.000 DampG=2.000 DampE=1.000 DampFc=2.0000 IDamp=-1.
 RMSDP=2.08D-03 MaxDP=1.18D-02              OVMax= 0.00D+00

 Cycle   2  Pass 1  IDiag  3:
 E=-0.975786467178963     Delta-E=       -0.002233715186 Rises=F Damp=F
 DIIS: error= 1.47D-03 at cycle   2 NSaved=   2.
 NSaved= 2 IEnMin= 2 EnMin=-0.975786467178963     IErMin= 2 ErrMin= 1.47D-03
 ErrMax= 1.47D-03  0.00D+00 EMaxC= 1.00D-01 BMatC= 9.01D-05 BMatP= 5.71D-04
 IDIUse=3 WtCom= 9.85D-01 WtEn= 1.47D-02
 Coeff-Com: -0.532D+00 0.153D+01
 Coeff-En:   0.000D+00 0.100D+01
 Coeff:     -0.524D+00 0.152D+01
 Gap=     0.369 Goal=   None    Shift=    0.000
 RMSDP=1.46D-03 MaxDP=8.56D-03 DE=-2.23D-03 OVMax= 1.07D-02

 Cycle   3  Pass 1  IDiag  3:
 E=-0.976329393105900     Delta-E=       -0.000542925927 Rises=F Damp=F
 DIIS: error= 3.43D-04 at cycle   3 NSaved=   3.
 NSaved= 3 IEnMin= 3 EnMin=-0.976329393105900     IErMin= 3 ErrMin= 3.43D-04
 ErrMax= 3.43D-04  0.00D+00 EMaxC= 1.00D-01 BMatC= 4.76D-06 BMatP= 9.01D-05
 IDIUse=3 WtCom= 9.97D-01 WtEn= 3.43D-03
 Coeff-Com:  0.239D+00-0.819D+00 0.158D+01
 Coeff-En:   0.000D+00 0.000D+00 0.100D+01
 Coeff:      0.238D+00-0.816D+00 0.158D+01
 Gap=     0.369 Goal=   None    Shift=    0.000
 RMSDP=4.61D-04 MaxDP=2.72D-03 DE=-5.43D-04 OVMax= 3.90D-03

 Cycle   4  Pass 1  IDiag  3:
 E=-0.976367865216844     Delta-E=       -0.000038472111 Rises=F Damp=F
 DIIS: error= 9.30D-05 at cycle   4 NSaved=   4.
 NSaved= 4 IEnMin= 4 EnMin=-0.976367865216844     IErMin= 4 ErrMin= 9.30D-05
 ErrMax= 9.30D-05  0.00D+00 EMaxC= 1.00D-01 BMatC= 2.35D-07 BMatP= 4.76D-06
 IDIUse=1 WtCom= 1.00D+00 WtEn= 0.00D+00
 Coeff-Com: -0.541D-01 0.198D+00-0.521D+00 0.138D+01
 Coeff:     -0.541D-01 0.198D+00-0.521D+00 0.138D+01
 Gap=     0.369 Goal=   None    Shift=    0.000
 RMSDP=1.05D-04 MaxDP=7.32D-04 DE=-3.85D-05 OVMax= 1.07D-03

 Cycle   5  Pass 1  IDiag  3:
 E=-0.976370007368885     Delta-E=       -0.000002142152 Rises=F Damp=F
 DIIS: error= 2.84D-05 at cycle   5 NSaved=   5.
 NSaved= 5 IEnMin= 5 EnMin=-0.976370007368885     IErMin= 5 ErrMin= 2.84D-05
 ErrMax= 2.84D-05  0.00D+00 EMaxC= 1.00D-01 BMatC= 2.73D-08 BMatP= 2.35D-07
 IDIUse=1 WtCom= 1.00D+00 WtEn= 0.00D+00
 Coeff-Com: -0.435D-02 0.105D-01 0.329D-01-0.549D+00 0.151D+01
 Coeff:     -0.435D-02 0.105D-01 0.329D-01-0.549D+00 0.151D+01
 Gap=     0.369 Goal=   None    Shift=    0.000
 RMSDP=4.33D-05 MaxDP=2.87D-04 DE=-2.14D-06 OVMax= 4.50D-04

 Cycle   6  Pass 1  IDiag  3:
 E=-0.976370276850361     Delta-E=       -0.000000269481 Rises=F Damp=F
 DIIS: error= 4.36D-06 at cycle   6 NSaved=   6.
 NSaved= 6 IEnMin= 6 EnMin=-0.976370276850361     IErMin= 6 ErrMin= 4.36D-06
 ErrMax= 4.36D-06  0.00D+00 EMaxC= 1.00D-01 BMatC= 1.51D-09 BMatP= 2.73D-08
 IDIUse=1 WtCom= 1.00D+00 WtEn= 0.00D+00
 Coeff-Com:  0.481D-02-0.152D-01 0.947D-02 0.223D+00-0.825D+00 0.160D+01
 Coeff:      0.481D-02-0.152D-01 0.947D-02 0.223D+00-0.825D+00 0.160D+01
 Gap=     0.369 Goal=   None    Shift=    0.000
 RMSDP=9.58D-06 MaxDP=4.85D-05 DE=-2.69D-07 OVMax= 8.70D-05

 Cycle   7  Pass 1  IDiag  3:
 E=-0.976370289997234     Delta-E=       -0.000000013147 Rises=F Damp=F
 DIIS: error= 6.80D-07 at cycle   7 NSaved=   7.
 NSaved= 7 IEnMin= 7 EnMin=-0.976370289997234     IErMin= 7 ErrMin= 6.80D-07
 ErrMax= 6.80D-07  0.00D+00 EMaxC= 1.00D-01 BMatC= 5.29D-11 BMatP= 1.51D-09
 IDIUse=1 WtCom= 1.00D+00 WtEn= 0.00D+00
 Coeff-Com: -0.235D-02 0.747D-02-0.637D-02-0.903D-01 0.353D+00-0.789D+00
 Coeff-Com:  0.153D+01
 Coeff:     -0.235D-02 0.747D-02-0.637D-02-0.903D-01 0.353D+00-0.789D+00
 Coeff:      0.153D+01
 Gap=     0.369 Goal=   None    Shift=    0.000
 RMSDP=1.54D-06 MaxDP=8.13D-06 DE=-1.31D-08 OVMax= 1.04D-05

 Cycle   8  Pass 1  IDiag  3:
 E=-0.976370290398549     Delta-E=       -0.000000000401 Rises=F Damp=F
 DIIS: error= 2.18D-07 at cycle   8 NSaved=   8.
 NSaved= 8 IEnMin= 8 EnMin=-0.976370290398549     IErMin= 8 ErrMin= 2.18D-07
 ErrMax= 2.18D-07  0.00D+00 EMaxC= 1.00D-01 BMatC= 2.59D-12 BMatP= 5.29D-11
 IDIUse=1 WtCom= 1.00D+00 WtEn= 0.00D+00
 Coeff-Com:  0.768D-03-0.246D-02 0.235D-02 0.269D-01-0.107D+00 0.251D+00
 Coeff-Com: -0.621D+00 0.145D+01
 Coeff:      0.768D-03-0.246D-02 0.235D-02 0.269D-01-0.107D+00 0.251D+00
 Coeff:     -0.621D+00 0.145D+01
 Gap=     0.369 Goal=   None    Shift=    0.000
 RMSDP=3.03D-07 MaxDP=1.84D-06 DE=-4.01D-10 OVMax= 2.28D-06

 Cycle   9  Pass 1  IDiag  3:
 E=-0.976370290417151     Delta-E=       -0.000000000019 Rises=F Damp=F
 DIIS: error= 6.21D-08 at cycle   9 NSaved=   9.
 NSaved= 9 IEnMin= 9 EnMin=-0.976370290417151     IErMin= 9 ErrMin= 6.21D-08
 ErrMax= 6.21D-08  0.00D+00 EMaxC= 1.00D-01 BMatC= 1.62D-13 BMatP= 2.59D-12
 IDIUse=1 WtCom= 1.00D+00 WtEn= 0.00D+00
 Coeff-Com: -0.671D-04 0.215D-03-0.249D-03-0.190D-02 0.778D-02-0.200D-01
 Coeff-Com:  0.747D-01-0.401D+00 0.134D+01
 Coeff:     -0.671D-04 0.215D-03-0.249D-03-0.190D-02 0.778D-02-0.200D-01
 Coeff:      0.747D-01-0.401D+00 0.134D+01
 Gap=     0.369 Goal=   None    Shift=    0.000
 RMSDP=8.15D-08 MaxDP=5.16D-07 DE=-1.86D-11 OVMax= 8.47D-07

 Cycle  10  Pass 1  IDiag  3:
 E=-0.976370290418373     Delta-E=       -0.000000000001 Rises=F Damp=F
 DIIS: error= 1.94D-08 at cycle  10 NSaved=  10.
 NSaved=10 IEnMin=10 EnMin=-0.976370290418373     IErMin=10 ErrMin= 1.94D-08
 ErrMax= 1.94D-08  0.00D+00 EMaxC= 1.00D-01 BMatC= 1.73D-14 BMatP= 1.62D-13
 IDIUse=1 WtCom= 1.00D+00 WtEn= 0.00D+00
 Coeff-Com: -0.166D-04 0.522D-04-0.171D-04-0.913D-03 0.346D-02-0.689D-02
 Coeff-Com:  0.385D-02 0.113D+00-0.722D+00 0.161D+01
 Coeff:     -0.166D-04 0.522D-04-0.171D-04-0.913D-03 0.346D-02-0.689D-02
 Coeff:      0.385D-02 0.113D+00-0.722D+00 0.161D+01
 Gap=     0.369 Goal=   None    Shift=    0.000
 RMSDP=3.27D-08 MaxDP=1.94D-07 DE=-1.22D-12 OVMax= 4.09D-07

 Cycle  11  Pass 1  IDiag  3:
 E=-0.976370290418799     Delta-E=        0.000000000000 Rises=F Damp=F
 DIIS: error= 6.64D-09 at cycle  11 NSaved=  11.
 NSaved=11 IEnMin=11 EnMin=-0.976370290418799     IErMin=11 ErrMin= 6.64D-09
 ErrMax= 6.64D-09  0.00D+00 EMaxC= 1.00D-01 BMatC= 1.74D-15 BMatP= 1.73D-14
 IDIUse=1 WtCom= 1.00D+00 WtEn= 0.00D+00
 Coeff-Com:  0.191D-04-0.604D-04 0.385D-04 0.855D-03-0.331D-02 0.694D-02
 Coeff-Com: -0.955D-02-0.479D-01 0.418D+00-0.120D+01 0.183D+01
 Coeff:      0.191D-04-0.604D-04 0.385D-04 0.855D-03-0.331D-02 0.694D-02
 Coeff:     -0.955D-02-0.479D-01 0.418D+00-0.120D+01 0.183D+01
 Gap=     0.369 Goal=   None    Shift=    0.000
 RMSDP=1.30D-08 MaxDP=8.15D-08 DE=-4.26D-13 OVMax= 1.78D-07

 Cycle  12  Pass 1  IDiag  3:
 E=-0.976370290418558     Delta-E=        0.000000000000 Rises=F Damp=F
 DIIS: error= 1.00D-09 at cycle  12 NSaved=  12.
 NSaved=12 IEnMin=11 EnMin=-0.976370290418799     IErMin=12 ErrMin= 1.00D-09
 ErrMax= 1.00D-09  0.00D+00 EMaxC= 1.00D-01 BMatC= 7.35D-17 BMatP= 1.74D-15
 IDIUse=1 WtCom= 1.00D+00 WtEn= 0.00D+00
 Coeff-Com: -0.855D-05 0.271D-04-0.186D-04-0.371D-03 0.144D-02-0.306D-02
 Coeff-Com:  0.481D-02 0.149D-01-0.154D+00 0.470D+00-0.852D+00 0.152D+01
 Coeff:     -0.855D-05 0.271D-04-0.186D-04-0.371D-03 0.144D-02-0.306D-02
 Coeff:      0.481D-02 0.149D-01-0.154D+00 0.470D+00-0.852D+00 0.152D+01
 Gap=     0.369 Goal=   None    Shift=    0.000
 RMSDP=2.16D-09 MaxDP=1.26D-08 DE= 2.42D-13 OVMax= 2.89D-08

 Cycle  13  Pass 2  IDiag  1:
 SCF Done:  E(RAM1) = -0.976370290419     A.U. after   13 cycles
            NFock= 12  Conv=0.22D-08     -V/T= 0.9395
 KE=-1.615021211629D+01 PE=-1.548799117288D+02 EE= 7.631430434204D+01
 Leave Link  502 at Fri Apr  8 10:23:11 2016, MaxMem=    33554432 cpu:         0.0
 (Enter /home/dustin/Applications/g09/g09/l701.exe)
 Compute integral first derivatives.
 ... and contract with generalized density number  0.
 Leave Link  701 at Fri Apr  8 10:23:11 2016, MaxMem=    33554432 cpu:         0.0
 (Enter /home/dustin/Applications/g09/g09/l702.exe)
 L702 exits ... SP integral derivatives will be done elsewhere.
 Leave Link  702 at Fri Apr  8 10:23:11 2016, MaxMem=    33554432 cpu:         0.0
 (Enter /home/dustin/Applications/g09/g09/l703.exe)
 Compute integral first derivatives, UseDBF=F ICtDFT=           0.
 Integral derivatives from FoFJK, PRISM(SPDF).
 Calling FoFJK, ICntrl=      2127 FMM=F ISym2X=0 I1Cent= 0 IOpClX= 0 NMat=1 NMatS=1 NMatT=0.
 FoFJK:  IHMeth= 8 ICntrl=    2127 DoSepK=F KAlg= 0 I1Cent=   0 FoldK=F
 IRaf=         0 NMat=   1 IRICut=       1 DoRegI=T DoRafI=F ISym2E= 0.
 FoFCou: FMM=F IPFlag=           0 FMFlag=      100000 FMFlg1=         800
         NFxFlg=           0 DoJE=F BraDBF=F KetDBF=F FulRan=T
         wScrn=  0.000000 ICntrl=    2127 IOpCl=  0 I1Cent=           0 NGrid=           0
         NMat0=    1 NMatS0=      1 NMatT0=    0 NMatD0=    1 NMtDS0=    0 NMtDT0=    0
 Symmetry not used in FoFCou.
 Leave Link  703 at Fri Apr  8 10:23:11 2016, MaxMem=    33554432 cpu:         0.0
 (Enter /home/dustin/Applications/g09/g09/l716.exe)
 Dipole        =-1.62758574D-01-7.67796229D-03-7.75935966D-03
 ***** Axes restored to original set *****
 -------------------------------------------------------------------
 Center     Atomic                   Forces (Hartrees/Bohr)
 Number     Number              X              Y              Z
 -------------------------------------------------------------------
      1        6          -0.000224373   -0.000311640   -0.002089279
[...]
     38 -0.125972D-05  0.000000D+00  0.115633D-05 -0.281053D-05  0.165446D-05
               16            17            18            19            20 
     16  0.723543D-01
     17 -0.451863D-01  0.832239D-01
     18 -0.271680D-01 -0.380376D-01  0.652056D-01
     19  0.199144D-01 -0.371800D-01  0.172656D-01  0.738752D-01
     20 -0.102992D-01  0.198310D-01 -0.953176D-02 -0.371131D-01  0.775079D-01
     21 -0.961522D-02  0.173490D-01 -0.773379D-02 -0.367621D-01 -0.403948D-01
     22  0.272353D-01 -0.479993D-01  0.207640D-01  0.739542D-02  0.157962D-02
     23 -0.125065D-05  0.000000D+00 -0.157234D-05  0.000000D+00  0.266462D-05
     24  0.634877D-05  0.322071D-05 -0.635062D-05 -0.447044D-05  0.000000D+00
     25 -0.488217D-05  0.142397D-05  0.296967D-05 -0.249449D-05  0.000000D+00
     26  0.271725D-05  0.474281D-05 -0.180861D-05 -0.612905D-05 -0.376380D-05
     27 -0.257876D-05  0.760009D-05 -0.176057D-05 -0.616040D-05  0.186868D-05
     28 -0.885401D-05  0.556464D-05  0.653059D-05  0.000000D+00 -0.139327D-04
     29  0.247186D-05  0.360701D-05 -0.515950D-05 -0.514666D-05  0.554327D-05
     30 -0.380339D-05  0.157157D-05  0.313166D-05  0.000000D+00 -0.102581D-04
     31 -0.103889D-04 -0.201651D-05  0.605972D-05  0.000000D+00  0.290652D-05
     32 -0.336796D-05  0.105146D-05  0.164378D-05 -0.411863D-05  0.000000D+00
     33 -0.160666D-04  0.865432D-05  0.152938D-04  0.000000D+00  0.851646D-05
     34 -0.972690D-05  0.107411D-04  0.688760D-05 -0.623587D-05 -0.994396D-05
     35 -0.619988D-05 -0.581934D-05  0.391002D-05  0.782878D-05 -0.122662D-05
     36  0.000000D+00 -0.373255D-05 -0.449620D-05  0.000000D+00 -0.196870D-04
     37  0.805800D-05  0.656292D-05 -0.645520D-05 -0.165357D-05 -0.244584D-05
     38 -0.484145D-04  0.426616D-05  0.375657D-04  0.000000D+00 -0.938131D-05
               21            22            23            24            25 
     21  0.771568D-01
     22 -0.897504D-02  0.811968D-01
     23 -0.105654D-05 -0.181374D-05  0.117155D-01
     24  0.669961D-05 -0.718740D-05  0.241809D-02  0.119874D-01
     25  0.329402D-05  0.000000D+00  0.456435D-02 -0.476013D-02  0.104441D-01
     26  0.110502D-04 -0.538337D-05 -0.473302D-02  0.480918D-02  0.111965D-02
     27  0.104262D-05 -0.334014D-05 -0.456817D-02 -0.841621D-02  0.339390D-02
     28  0.163211D-04 -0.433537D-05 -0.274703D-02 -0.383380D-02  0.336204D-02
     29 -0.288945D-05 -0.286563D-05  0.231484D-02 -0.150710D-02 -0.226544D-02
     30  0.123890D-04 -0.386086D-05  0.413599D-02  0.307531D-02 -0.229730D-02
     31 -0.242284D-05  0.367139D-05  0.156265D-04 -0.962037D-02  0.378484D-02
     32  0.474379D-05 -0.129066D-05 -0.857453D-02 -0.778969D-03 -0.483036D-02
     33 -0.654977D-05 -0.584153D-05  0.984679D-03  0.443170D-02 -0.905605D-03
     34  0.137814D-04 -0.813772D-05 -0.907389D-03 -0.329167D-03 -0.872501D-03
     35 -0.367291D-05  0.267585D-05  0.443230D-02  0.632664D-03 -0.329018D-03
     36  0.166582D-04  0.000000D+00  0.254024D-02 -0.412820D-02 -0.295914D-03
     37  0.256141D-05 -0.293017D-05 -0.256440D-02  0.492575D-02 -0.189169D-02
     38  0.776243D-05 -0.291167D-05  0.615366D-03  0.142187D-02 -0.135990D-02
               26            27            28            29            30 
     26  0.106619D-01
     27 -0.454134D-03  0.112248D-01
     28  0.227527D-02  0.356215D-02  0.797125D-02
     29 -0.608739D-02  0.356117D-02 -0.231790D-02  0.796975D-02
     30 -0.335798D-02 -0.410144D-02  0.209120D-02  0.209068D-02  0.828332D-02
     31 -0.585115D-02  0.313157D-02  0.248354D-02 -0.496336D-03 -0.114437D-02
     32  0.296521D-02 -0.423755D-03  0.147944D-02 -0.402756D-02 -0.212437D-02
     33  0.254141D-02 -0.456758D-02  0.231769D-02 -0.274817D-02  0.413710D-02
     34 -0.294279D-03  0.339344D-02 -0.226311D-02  0.335986D-02 -0.229669D-02
     35 -0.412866D-02 -0.841606D-02 -0.150775D-02 -0.383324D-02  0.307507D-02
     36 -0.696435D-02 -0.455042D-03 -0.608855D-02  0.227478D-02 -0.335872D-02
     37  0.559846D-02  0.313082D-02 -0.496365D-03  0.248332D-02 -0.114386D-02
     38 -0.553395D-03 -0.418664D-03 -0.402458D-02  0.148255D-02 -0.212337D-02
               31            32            33            34            35 
     31  0.101897D-01
     32  0.128667D-02  0.848925D-02
     33 -0.256425D-02  0.620568D-03  0.117197D-01
     34 -0.189098D-02 -0.135674D-02  0.456628D-02  0.104431D-01
     35  0.492515D-02  0.141454D-02  0.241759D-02 -0.475976D-02  0.119884D-01
     36  0.559842D-02 -0.562774D-03 -0.473582D-02  0.111709D-02  0.481105D-02
     37 -0.844365D-02 -0.152325D-02  0.161072D-04  0.378454D-02 -0.962140D-02
     38 -0.153612D-02 -0.790963D-03 -0.856327D-02 -0.481692D-02 -0.794172D-03
               36            37            38 
     36  0.106640D-01
     37 -0.585297D-02  0.101915D-01
     38  0.295218D-02  0.130271D-02  0.846825D-02
 Leave Link  716 at Fri Apr  8 10:23:12 2016, MaxMem=    33554432 cpu:         0.0
 (Enter /home/dustin/Applications/g09/g09/l103.exe)

 GradGradGradGradGradGradGradGradGradGradGradGradGradGradGradGradGradGrad
 Berny optimization.
 Red2BG is reusing G-inverse.
 Internal  Forces:  Max     0.000198947 RMS     0.000059239
 Search for a local minimum.
 Step number   1 out of a maximum of    2
 All quantities printed in internal units (Hartrees-Bohrs-Radians)
 Second derivative matrix not updated -- analytic derivatives used.
 ITU=  0
     Eigenvalues ---    0.01347   0.01853   0.02374   0.02804   0.03598
     Eigenvalues ---    0.04265   0.08245   0.08400   0.10777   0.11509
     Eigenvalues ---    0.13406   0.15875   0.19863   0.21832   0.38995
     Eigenvalues ---    0.40392   0.41044   0.41651   0.43268   0.62708
     Eigenvalues ---    0.71438
 Angle between quadratic step and forces=  46.91 degrees.
 Linear search not attempted -- first point.
 Iteration  1 RMS(Cart)=  0.00052054 RMS(Int)=  0.00000037
 Iteration  2 RMS(Cart)=  0.00000030 RMS(Int)=  0.00000018
 ITry= 1 IFail=0 DXMaxC= 1.43D-03 DCOld= 1.00D+10 DXMaxT= 3.00D-01 DXLimC= 3.00D+00 Rises=F
 Variable       Old X    -DE/DX   Delta X   Delta X   Delta X     New X
                                 (Linear)    (Quad)   (Total)
    R1        2.56562  -0.00020   0.00000  -0.00018  -0.00018   2.56544
    R2        2.73827  -0.00012   0.00000  -0.00046  -0.00046   2.73781
    R3        2.04581   0.00004   0.00000   0.00014   0.00014   2.04595
    R4        2.03072  -0.00010   0.00000  -0.00021  -0.00021   2.03051
    R5        3.44043  -0.00008   0.00000  -0.00040  -0.00040   3.44002
    R6        2.56529  -0.00006   0.00000   0.00015   0.00015   2.56544
    R7        2.03046   0.00001   0.00000   0.00005   0.00005   2.03051
    R8        3.44028  -0.00003   0.00000  -0.00025  -0.00025   3.44002
    R9        2.04603  -0.00004   0.00000  -0.00008  -0.00008   2.04595
    A1        1.98900   0.00002   0.00000  -0.00004  -0.00004   1.98896
    A2        2.17648  -0.00010   0.00000  -0.00082  -0.00082   2.17566
    A3        2.11771   0.00008   0.00000   0.00086   0.00086   2.11857
    A4        2.22626   0.00000   0.00000   0.00015   0.00015   2.22641
    A5        1.94677   0.00005   0.00000   0.00017   0.00017   1.94694
    A6        2.11016  -0.00005   0.00000  -0.00032  -0.00032   2.10984
    A7        2.22747  -0.00009   0.00000  -0.00107  -0.00107   2.22641
    A8        1.94693  -0.00001   0.00000   0.00001   0.00000   1.94694
    A9        2.10878   0.00010   0.00000   0.00106   0.00106   2.10984
   A10        1.98901  -0.00001   0.00000  -0.00005  -0.00005   1.98896
   A11        2.11771   0.00009   0.00000   0.00086   0.00086   2.11857
   A12        2.17647  -0.00008   0.00000  -0.00081  -0.00081   2.17566
   A13        1.55306  -0.00005   0.00000  -0.00009  -0.00009   1.55298
    D1       -3.14137  -0.00001   0.00000  -0.00023  -0.00023   3.14159
    D2        0.00023   0.00000   0.00000  -0.00023  -0.00023   0.00000
    D3       -0.00009   0.00000   0.00000   0.00009   0.00009   0.00000
    D4        3.14150   0.00001   0.00000   0.00009   0.00009  -3.14159
    D5       -0.00022   0.00001   0.00000   0.00022   0.00022   0.00000
    D6        3.14093   0.00002   0.00000   0.00066   0.00066  -3.14159
    D7       -3.14150  -0.00001   0.00000  -0.00009  -0.00009  -3.14159
    D8       -0.00036   0.00001   0.00000   0.00035   0.00035   0.00000
    D9       -0.00014   0.00000   0.00000   0.00014   0.00014   0.00000
   D10        3.14145   0.00000   0.00000   0.00014   0.00014   3.14159
   D11        3.14070   0.00002   0.00000   0.00089   0.00089  -3.14159
   D12       -0.00043   0.00001   0.00000   0.00043   0.00043   0.00000
   D13        0.00010   0.00000   0.00000  -0.00010  -0.00010   0.00000
   D14       -3.14103  -0.00002   0.00000  -0.00056  -0.00056   3.14159
   D15        0.00002   0.00000   0.00000  -0.00002  -0.00002   0.00000
   D16       -3.14066  -0.00002   0.00000  -0.00093  -0.00093   3.14159
         Item               Value     Threshold  Converged?
 Maximum Force            0.000199     0.000450     YES
 RMS     Force            0.000059     0.000300     YES
 Maximum Displacement     0.001435     0.001800     YES
 RMS     Displacement     0.000521     0.001200     YES
 Predicted change in Energy=-3.693291D-07
 Optimization completed.
    -- Stationary point found.
                           ----------------------------
                           !   Optimized Parameters   !
                           ! (Angstroms and Degrees)  !
 --------------------------                            --------------------------
 ! Name  Definition              Value          Derivative Info.                !
 --------------------------------------------------------------------------------
 ! R1    R(1,2)                  1.3577         -DE/DX =   -0.0002              !
 ! R2    R(1,4)                  1.449          -DE/DX =   -0.0001              !
 ! R3    R(1,8)                  1.0826         -DE/DX =    0.0                 !
 ! R4    R(2,7)                  1.0746         -DE/DX =   -0.0001              !
 ! R5    R(2,9)                  1.8206         -DE/DX =   -0.0001              !
 ! R6    R(3,4)                  1.3575         -DE/DX =   -0.0001              !
 ! R7    R(3,6)                  1.0745         -DE/DX =    0.0                 !
 ! R8    R(3,9)                  1.8205         -DE/DX =    0.0                 !
 ! R9    R(4,5)                  1.0827         -DE/DX =    0.0                 !
 ! A1    A(2,1,4)              113.9614         -DE/DX =    0.0                 !
 ! A2    A(2,1,8)              124.703          -DE/DX =   -0.0001              !
 ! A3    A(4,1,8)              121.3356         -DE/DX =    0.0001              !
 ! A4    A(1,2,7)              127.5551         -DE/DX =    0.0                 !
 ! A5    A(1,2,9)              111.5416         -DE/DX =    0.0                 !
 ! A6    A(7,2,9)              120.9033         -DE/DX =    0.0                 !
 ! A7    A(4,3,6)              127.6248         -DE/DX =   -0.0001              !
 ! A8    A(4,3,9)              111.551          -DE/DX =    0.0                 !
 ! A9    A(6,3,9)              120.8242         -DE/DX =    0.0001              !
 ! A10   A(1,4,3)              113.9619         -DE/DX =    0.0                 !
 ! A11   A(1,4,5)              121.3356         -DE/DX =    0.0001              !
 ! A12   A(3,4,5)              124.7025         -DE/DX =   -0.0001              !
 ! A13   A(2,9,3)               88.984          -DE/DX =    0.0                 !
 ! D1    D(4,1,2,7)            180.013          -DE/DX =    0.0                 !
 ! D2    D(4,1,2,9)              0.013          -DE/DX =    0.0                 !
 ! D3    D(8,1,2,7)             -0.0053         -DE/DX =    0.0                 !
 ! D4    D(8,1,2,9)           -180.0053         -DE/DX =    0.0                 !
 ! D5    D(2,1,4,3)             -0.0124         -DE/DX =    0.0                 !
 ! D6    D(2,1,4,5)           -180.038          -DE/DX =    0.0                 !
 ! D7    D(8,1,4,3)           -179.9948         -DE/DX =    0.0                 !
 ! D8    D(8,1,4,5)             -0.0203         -DE/DX =    0.0                 !
 ! D9    D(1,2,9,3)             -0.0082         -DE/DX =    0.0                 !
 ! D10   D(7,2,9,3)            179.9918         -DE/DX =    0.0                 !
 ! D11   D(6,3,4,1)           -180.051          -DE/DX =    0.0                 !
 ! D12   D(6,3,4,5)             -0.0244         -DE/DX =    0.0                 !
 ! D13   D(9,3,4,1)              0.0056         -DE/DX =    0.0                 !
 ! D14   D(9,3,4,5)            180.0322         -DE/DX =    0.0                 !
 ! D15   D(4,3,9,2)              0.0013         -DE/DX =    0.0                 !
 ! D16   D(6,3,9,2)            180.0535         -DE/DX =    0.0                 !
 --------------------------------------------------------------------------------
 GradGradGradGradGradGradGradGradGradGradGradGradGradGradGradGradGradGrad

 Leave Link  103 at Fri Apr  8 10:23:12 2016, MaxMem=    33554432 cpu:         0.0
 (Enter /home/dustin/Applications/g09/g09/l9999.exe)
 1\1\GINC-DUSTIN-DESKTOP\Freq\RAM1\ZDO\C4H4S1\DUSTIN\08-Apr-2016\0\\#P 
 Geom=AllCheck Guess=TCheck SCRF=Check GenChk RAM1/ZDO Freq\\best\\0,1\
 C,0.8727461984,-0.7086177752,-0.0461844841\C,-0.3750025504,-1.24292076
 75,-0.0160588269\C,-0.3372246272,1.3071819394,0.0667556787\C,0.8941120
 834,0.739486056,0.0009987013\H,1.8264418968,1.2897049587,-0.0158925839
 \H,-0.5753890591,2.353978983,0.1112893027\H,-0.6427544768,-2.283364526
 4,-0.0400889487\H,1.7883610168,-1.2837355377,-0.1000668817\S,-1.653718
 4819,0.0497836697,0.0754320427\\Version=ES64L-G09RevD.01\State=1-A\HF=
 -0.9772759\RMSD=6.132e-10\RMSF=7.966e-05\ZeroPoint=0.0687477\Thermal=0
 .0730013\Dipole=0.2396225,-0.0032007,-0.0089469\DipoleDeriv=-0.41514,0
 .0750522,0.0156814,-0.3243434,-0.02139,0.0138895,0.0024769,-0.0013124,
 -0.0684564,0.8489408,-0.207293,-0.0449568,-0.4349139,0.0362861,0.02265
 48,-0.0524162,0.0140373,-0.1461023,0.8674203,0.1855636,-0.0326677,0.41
 32341,0.0195617,-0.010013,-0.0252218,-0.0012577,-0.1475178,-0.407364,-
 0.0645242,0.0108871,0.3349379,-0.0284355,-0.0114625,0.0241284,0.003687
 8,-0.0689948,0.0525437,0.0076661,0.0016575,0.044907,0.0288393,-0.00371
 15,0.0028406,-0.0023278,0.0890453,-0.040478,-0.0488051,0.004336,-0.074
 4194,0.0801168,0.0016903,0.003535,0.0005771,0.1150972,-0.0368778,0.051
 7576,0.0075198,0.0772485,0.0767857,-0.0042216,0.0083689,-0.0032624,0.1
 148459,0.0509671,-0.0084239,0.0011877,-0.0456543,0.0302565,-0.0002148,
 -0.0000719,-0.0016054,0.0892111,-0.9200105,0.0090068,0.0363549,0.00900
 33,-0.2220252,-0.0086113,0.0363653,-0.0085406,0.0228722\Polar=72.73938
 2,-0.1595223,56.601618,-2.4593088,1.6015404,8.5677537\HyperPolar=194.7
 5445,-0.9797512,56.4887393,-2.3389685,-6.915654,1.6675564,-2.2153803,7
 .7987852,-0.2341071,-0.8836904\PG=C01 [X(C4H4S1)]\NImag=0\\0.86859375,
 -0.00885390,0.63681385,-0.02820293,0.01681338,0.13989526,-0.45247728,-
 0.12185447,0.01112572,0.62521147,-0.19732741,-0.13844856,0.00486153,0.
 26889102,0.65009109,0.00862828,0.00197933,-0.05716917,-0.01103015,0.00
 768858,0.10574932,0.00459802,0.08906309,0.00293757,-0.02008681,0.00426
 456,0.00105058,0.61003345,0.04371588,-0.06532514,-0.00396424,-0.004819
 31,-0.03681594,-0.00115714,-0.26707385,0.66464244,0.00144013,-0.005698
 50,0.00389132,0.00074543,-0.00150243,0.00370230,-0.02815475,0.02896178
 ,0.10700577,-0.07711927,-0.04620549,-0.00113169,0.00063213,-0.04565039
 ,-0.00137212,-0.44328503,0.20558608,0.02155127,0.86930779,0.04090375,-
 0.25574075,-0.00783696,-0.09098179,-0.06164854,0.00129800,0.13010037,-
 0.14733772,-0.00797325,0.00348786,0.63641644,0.00175605,-0.00452070,-0
 .06660461,-0.00287230,-0.00043356,0.00423260,0.01903838,-0.01084940,-0
 .05793258,-0.02766707,0.01644840,0.13984675,-0.00140903,-0.00878238,-0
 .00005791,-0.00024491,0.00107172,0.00012938,-0.04503424,-0.00964939,0.
 00164456,-0.27067450,-0.13644850,0.00412347,0.31893433,-0.02908104,-0.
 02821924,0.00000619,0.00020113,-0.00459063,-0.00023459,0.00841223,0.00
 776646,-0.00028643,-0.13489233,-0.12131351,0.00243235,0.15366542,0.146
 05397,-0.00073311,-0.00075916,0.00477405,0.00009849,-0.00026820,0.0022
 3652,0.00224444,0.00040066,0.00668896,0.00417689,0.00248641,-0.0413662
 0,-0.00601867,-0.00176251,0.02465785,-0.00395419,0.00116040,0.00050806
 ,-0.00282830,-0.00297858,0.00005086,-0.04951131,0.06740825,0.00271890,
 -0.01178647,0.03650165,0.00181000,0.00030541,-0.00013722,-0.00009886,0
 .06775880,0.00111453,0.00021130,-0.00031783,-0.00146125,-0.00150942,-0
 .00003121,0.07470413,-0.35253690,-0.01349246,0.01447216,-0.01914304,-0
 .00131520,0.00021998,0.00014012,0.00006908,-0.08582585,0.39073661,0.00
 050368,-0.00031491,0.00832504,0.00010286,0.00002683,0.00108947,0.00297
 017,-0.01322341,-0.03855727,0.00106654,-0.00215224,0.00346868,-0.00008
 592,0.00008175,-0.00214871,-0.00455486,0.01565232,0.02512698,-0.013289
 28,-0.03672408,-0.00056509,-0.05382303,-0.07588039,-0.00189579,-0.0026
 9543,0.00300178,0.00024457,-0.00401575,-0.00107210,0.00043741,0.000137
 46,-0.00098396,-0.00004784,0.00077831,0.00040546,-0.00000163,0.0729567
 9,-0.01471016,-0.01781572,-0.00014345,-0.08314100,-0.34843555,-0.00704
 443,0.00148287,-0.00162646,-0.00014698,-0.00102440,0.00026937,-0.00022
 672,-0.00000263,-0.00021212,0.00000162,-0.00043395,-0.00023699,-0.0000
 0380,0.09495999,0.38581075,0.00016228,0.00070250,0.00360802,-0.0021366
 9,-0.00732452,-0.03819764,0.00019096,-0.00020439,0.00107991,0.00044138
 ,-0.00022910,0.00832667,-0.00001520,0.00003997,-0.00025570,-0.00002856
 ,-0.00003612,0.00038912,0.00127373,0.00827223,0.02469144,-0.26269156,0
 .14016811,0.01306861,-0.04494508,0.01107480,0.00234016,-0.00028690,-0.
 00120573,0.00005663,-0.00031416,0.00794674,0.00045711,0.00016672,0.000
 03124,-0.00001892,0.00016647,-0.00000730,-0.00001651,0.00030069,-0.000
 21893,-0.00010093,0.30986388,0.13861110,-0.12877964,-0.00817311,-0.006
 98941,0.00769506,0.00029794,-0.00033518,-0.00455406,-0.00021388,0.0282
 4830,-0.02922840,-0.00220073,-0.00003784,-0.00010293,0.00000993,0.0009
 7452,-0.00023770,-0.00003668,0.00013702,0.00014269,0.00007048,-0.15788
 507,0.15451528,0.01301421,-0.00823325,-0.04201948,0.00174642,-0.000391
 18,0.00667557,0.00008604,-0.00017915,0.00223982,0.00112779,-0.00142689
 ,0.00468109,-0.00002111,0.00000728,-0.00035639,0.00001579,0.00000115,-
 0.00025777,-0.00008943,0.00008402,-0.00214702,-0.01609704,0.01031470,0
 .02540780,-0.06225122,-0.00797141,0.00231768,-0.05143787,0.03653455,0.
 00209880,-0.05373143,-0.03696361,-0.00024674,-0.06274481,0.00956214,0.
 00291697,-0.00218128,0.00278451,0.00039758,-0.00092878,-0.00362179,0.0
 0001566,-0.00034982,0.00308817,0.00021302,-0.00226010,-0.00272342,0.00
 021734,0.23588502,0.02562728,-0.00269614,-0.00124553,0.04015493,-0.066
 33741,-0.00279648,-0.04061808,-0.06421258,0.00035214,-0.02402183,-0.00
 227389,0.00066557,-0.00003638,0.00047782,-0.00017784,-0.01666926,-0.01
 742395,-0.00002985,0.01615632,-0.01789594,-0.00129103,0.00009617,0.000
 54965,-0.00017668,-0.00068914,0.16981238,0.00343146,0.00003131,0.00529
 981,0.00222016,-0.00265702,-0.02831873,-0.00036342,0.00021529,-0.02811
 792,0.00180702,-0.00061436,0.00534779,0.00030140,-0.00028403,0.0057696
 0,-0.00042134,-0.00052971,0.00256409,0.00064407,-0.00079247,0.00250482
 ,0.00031089,-0.00006866,0.00577636,-0.00793024,0.00469967,0.02917402\\
 0.00018936,-0.00016306,-0.00002724,-0.00016219,-0.00003928,0.00001666,
 0.00006118,0.00005797,-0.00005505,-0.00003093,0.00014740,-0.00000833,0
 .00007404,-0.00005133,0.00001418,-0.00008374,-0.00002702,0.00003730,-0
 .00000279,-0.00010139,0.00000215,0.00001253,0.00009613,0.00000912,-0.0
 0005747,0.00008058,0.00001120\\\@


 CHRISTMAS IS ON TOP OF A STEEP HILL.
 THE CLOSER YOU GET, THE STEEPER THE HILL IS.
          -- LINUS, OF PEANUTS
 Job cpu time:       0 days  0 hours  0 minutes  0.3 seconds.
 File lengths (MBytes):  RWF=      5 Int=      0 D2E=      0 Chk=      2 Scr=      1
 Normal termination of Gaussian 09 at Fri Apr  8 10:23:12 2016.
