 Entering Gaussian System, Link 0=g09
 Input=best.com
 Output=best_opt.log
 Initial command:
 /home/dustin/Applications/g09/g09/l1.exe "/tmp/Gau-11166.inp" -scrdir="/tmp/"
 Entering Link 1 = /home/dustin/Applications/g09/g09/l1.exe PID=     11168.
  
 Copyright (c) 1988,1990,1992,1993,1995,1998,2003,2009,2013,
            Gaussian, Inc.  All Rights Reserved.
  
 This is part of the Gaussian(R) 09 program.  It is based on
 the Gaussian(R) 03 system (copyright 2003, Gaussian, Inc.),
 the Gaussian(R) 98 system (copyright 1998, Gaussian, Inc.),
 the Gaussian(R) 94 system (copyright 1995, Gaussian, Inc.),
 the Gaussian 92(TM) system (copyright 1992, Gaussian, Inc.),
 the Gaussian 90(TM) system (copyright 1990, Gaussian, Inc.),
 the Gaussian 88(TM) system (copyright 1988, Gaussian, Inc.),
 the Gaussian 86(TM) system (copyright 1986, Carnegie Mellon
 University), and the Gaussian 82(TM) system (copyright 1983,
 Carnegie Mellon University). Gaussian is a federally registered
 trademark of Gaussian, Inc.
  
 This software contains proprietary and confidential information,
 including trade secrets, belonging to Gaussian, Inc.
  
 This software is provided under written license and may be
 used, copied, transmitted, or stored only in accord with that
 written license.
  
 The following legend is applicable only to US Government
 contracts under FAR:
  
                    RESTRICTED RIGHTS LEGEND
  
 Use, reproduction and disclosure by the US Government is
 subject to restrictions as set forth in subparagraphs (a)
 and (c) of the Commercial Computer Software - Restricted
 Rights clause in FAR 52.227-19.
  
 Gaussian, Inc.
 340 Quinnipiac St., Bldg. 40, Wallingford CT 06492
  
  
 ---------------------------------------------------------------
 Warning -- This program may not be used in any manner that
 competes with the business of Gaussian, Inc. or will provide
 assistance to any competitor of Gaussian, Inc.  The licensee
 of this program is prohibited from giving any competitor of
 Gaussian, Inc. access to this program.  By using this program,
 the user acknowledges that Gaussian, Inc. is engaged in the
 business of creating and licensing software in the field of
 computational chemistry and represents and warrants to the
 licensee that it is not a competitor of Gaussian, Inc. and that
 it will not use this program in any manner prohibited above.
 ---------------------------------------------------------------
  

 Cite this work as:
 Gaussian 09, Revision D.01,
 M. J. Frisch, G. W. Trucks, H. B. Schlegel, G. E. Scuseria, 
 M. A. Robb, J. R. Cheeseman, G. Scalmani, V. Barone, B. Mennucci, 
 G. A. Petersson, H. Nakatsuji, M. Caricato, X. Li, H. P. Hratchian, 
 A. F. Izmaylov, J. Bloino, G. Zheng, J. L. Sonnenberg, M. Hada, 
 M. Ehara, K. Toyota, R. Fukuda, J. Hasegawa, M. Ishida, T. Nakajima, 
 Y. Honda, O. Kitao, H. Nakai, T. Vreven, J. A. Montgomery, Jr., 
 J. E. Peralta, F. Ogliaro, M. Bearpark, J. J. Heyd, E. Brothers, 
 K. N. Kudin, V. N. Staroverov, T. Keith, R. Kobayashi, J. Normand, 
 K. Raghavachari, A. Rendell, J. C. Burant, S. S. Iyengar, J. Tomasi, 
 M. Cossi, N. Rega, J. M. Millam, M. Klene, J. E. Knox, J. B. Cross, 
 V. Bakken, C. Adamo, J. Jaramillo, R. Gomperts, R. E. Stratmann, 
 O. Yazyev, A. J. Austin, R. Cammi, C. Pomelli, J. W. Ochterski, 
 R. L. Martin, K. Morokuma, V. G. Zakrzewski, G. A. Voth, 
 P. Salvador, J. J. Dannenberg, S. Dapprich, A. D. Daniels, 
 O. Farkas, J. B. Foresman, J. V. Ortiz, J. Cioslowski, 
 and D. J. Fox, Gaussian, Inc., Wallingford CT, 2013.
 
 ******************************************
 Gaussian 09:  ES64L-G09RevD.01 24-Apr-2013
                 7-Apr-2016 
 ******************************************
 %chk=best
 --------------------------------------------
 #P AM1(Input,Print) opt(TS,CalcFC,Cartesian)
 --------------------------------------------
 1/5=1,10=4,14=-1,18=10,26=1,38=1/1,3;
 2/12=2,17=6,18=5,29=2,40=1/2;
 3/5=2,16=1,25=1,41=700000,71=2,135=100,136=1,140=1/1,2,3;
 4/35=1/1;
 5/5=2,35=1,38=5/2;
 8/6=4,10=90,11=11/1;
 11/6=1,8=1,9=11,15=111,16=1/1,2,10;
 10/6=1,13=1/2;
 6/7=2,8=2,9=2,10=2,28=1/1;
 7/7=1,10=1,18=20,25=1/1,2,3,16;
 1/5=1,10=4,14=-1,18=10,26=1/3(2);
 2/29=1/2;
 99/12=1/99;
 2/29=1/2;
 3/5=2,16=1,25=1,41=700000,71=1,135=20,136=1/1,2,3;
 4/5=5,16=3,35=1/1;
 5/5=2,35=1,38=5/2;
 7/7=1/1,2,3,16;
 1/5=1,14=-1,18=10,26=1/3(-5);
 2/29=1/2;
 6/7=2,8=2,9=2,10=2,19=2,28=1/1;
 99/9=1,12=1/99;
 Leave Link    1 at Thu Apr  7 11:09:05 2016, MaxMem=           0 cpu:         0.0
 (Enter /home/dustin/Applications/g09/g09/l101.exe)
 ----
 best
 ----
 Symbolic Z-matrix:
 Charge =  0 Multiplicity = 1
 6                     0.91952  -0.67572   0.00357 
 6                    -0.49091  -1.2342    0.00458 
 6                    -0.3792    1.32009  -0.00136 
 6                     0.91449   0.66623   0.04319 
 1                     1.76787   1.32507  -0.00589 
 1                    -0.57691   2.36687   0.24934 
 1                    -0.62255  -2.27345   0.15352 
 1                     1.75713  -1.22827  -0.00439 
 16                   -1.59779   0.06447  -0.10599 
 
 NAtoms=      9 NQM=        9 NQMF=       0 NMMI=      0 NMMIF=      0
                NMic=       0 NMicF=      0.
                    Isotopes and Nuclear Properties:
 (Nuclear quadrupole moments (NQMom) in fm**2, nuclear magnetic moments (NMagM)
  in nuclear magnetons)

  Atom         1           2           3           4           5           6           7           8           9
 IAtWgt=          12          12          12          12           1           1           1           1          32
 AtmWgt=  12.0000000  12.0000000  12.0000000  12.0000000   1.0078250   1.0078250   1.0078250   1.0078250  31.9720718
 NucSpn=           0           0           0           0           1           1           1           1           0
 AtZEff=   0.0000000   0.0000000   0.0000000   0.0000000   0.0000000   0.0000000   0.0000000   0.0000000   0.0000000
 NQMom=    0.0000000   0.0000000   0.0000000   0.0000000   0.0000000   0.0000000   0.0000000   0.0000000   0.0000000
 NMagM=    0.0000000   0.0000000   0.0000000   0.0000000   2.7928460   2.7928460   2.7928460   2.7928460   0.0000000
 AtZNuc=   6.0000000   6.0000000   6.0000000   6.0000000   1.0000000   1.0000000   1.0000000   1.0000000  16.0000000
 Leave Link  101 at Thu Apr  7 11:09:05 2016, MaxMem=    33554432 cpu:         0.0
 (Enter /home/dustin/Applications/g09/g09/l103.exe)

 GradGradGradGradGradGradGradGradGradGradGradGradGradGradGradGradGradGrad
 Berny optimization.
 Initialization pass.
 No Z-matrix variables, so optimization will use Cartesian coordinates.
 Trust Radius=3.00D-01 FncErr=1.00D-07 GrdErr=1.00D-07
 Number of steps in this run=     37 maximum allowed number of steps=    100.
 Search for a saddle point of order  1.
 GradGradGradGradGradGradGradGradGradGradGradGradGradGradGradGradGradGrad

 Leave Link  103 at Thu Apr  7 11:09:05 2016, MaxMem=    33554432 cpu:         0.0
 (Enter /home/dustin/Applications/g09/g09/l202.exe)
 ---------------------------------------------------------------------------------------------------
                            Z-MATRIX (ANGSTROMS AND DEGREES)
   CD    Cent   Atom    N1       Length/X        N2       Alpha/Y        N3        Beta/Z          J
 ---------------------------------------------------------------------------------------------------
      1      1  C        0   0.919518         -0.675724          0.003566
      2      2  C        0  -0.490910         -1.234199          0.004582
      3      3  C        0  -0.379197          1.320087         -0.001364
      4      4  C        0   0.914488          0.666233          0.043193
      5      5  H        0   1.767865          1.325068         -0.005890
      6      6  H        0  -0.576906          2.366865          0.249339
      7      7  H        0  -0.622552         -2.273453          0.153516
      8      8  H        0   1.757130         -1.228273         -0.004391
      9      9  S        0  -1.597790          0.064466         -0.105987
 ---------------------------------------------------------------------------------------------------
                         Z-Matrix orientation:                         
 ---------------------------------------------------------------------
 Center     Atomic      Atomic             Coordinates (Angstroms)
 Number     Number       Type             X           Y           Z
 ---------------------------------------------------------------------
      1          6           0        0.919518   -0.675724    0.003566
      2          6           0       -0.490910   -1.234199    0.004582
      3          6           0       -0.379197    1.320087   -0.001364
      4          6           0        0.914488    0.666233    0.043193
      5          1           0        1.767865    1.325068   -0.005890
      6          1           0       -0.576906    2.366865    0.249339
      7          1           0       -0.622552   -2.273453    0.153516
      8          1           0        1.757130   -1.228273   -0.004391
      9         16           0       -1.597790    0.064466   -0.105987
 ---------------------------------------------------------------------
                    Distance matrix (angstroms):
                    1          2          3          4          5
     1  C    0.000000
     2  C    1.516971   0.000000
     3  C    2.381165   2.556735   0.000000
     4  C    1.342551   2.363953   1.450218   0.000000
     5  H    2.173235   3.413506   2.147073   1.079224   0.000000
     6  H    3.399564   3.610397   1.094388   2.271322   2.578456
     7  H    2.225579   1.058093   3.605099   3.319099   4.323061
     8  H    1.003478   2.248066   3.325363   2.073997   2.553364
     9  S    2.626161   1.709953   1.752855   2.587647   3.595382
                    6          7          8          9
     6  H    0.000000
     7  H    4.641532   0.000000
     8  H    4.293847   2.603886   0.000000
     9  S    2.543522   2.546428   3.596802   0.000000
 Stoichiometry    C4H4S
 Framework group  C1[X(C4H4S)]
 Deg. of freedom    21
 Full point group                 C1      NOp   1
 Largest Abelian subgroup         C1      NOp   1
 Largest concise Abelian subgroup C1      NOp   1
                         Standard orientation:                         
 ---------------------------------------------------------------------
 Center     Atomic      Atomic             Coordinates (Angstroms)
 Number     Number       Type             X           Y           Z
 ---------------------------------------------------------------------
      1          6           0        1.324805   -0.697919   -0.025343
      2          6           0       -0.077306   -1.273157    0.040896
      3          6           0        0.002711    1.282152    0.011130
      4          6           0        1.305034    0.644155    0.004488
      5          1           0        2.147349    1.312714   -0.086398
      6          1           0       -0.196805    2.328458    0.262371
      7          1           0       -0.189634   -2.312690    0.203112
      8          1           0        2.168005   -1.240481   -0.065454
      9         16           0       -1.203774    0.011288   -0.031291
 ---------------------------------------------------------------------
 Rotational constants (GHZ):      7.8561725      5.1905789      3.1325344
 Leave Link  202 at Thu Apr  7 11:09:05 2016, MaxMem=    33554432 cpu:         0.0
 (Enter /home/dustin/Applications/g09/g09/l301.exe)

 Semi-emprical parameters in input format:
 Method=8 CoreType=1 PeptideFC=0.0103857720 RIJScale=0.5302093464
 ****
 H       
 PQN=1 NValence=1 F0ss=0.4518337300 ZetaOverlap=1.1180949616 U=-0.4334099062
 Beta=-0.2537098143 CoreKO=0.9005820729 KON=0,0,0,0.8387639208 KON=1,0,1,1.0061236865
 KON=0,1,1,0.9519998753 KON=2,1,1,0.8909335325 EISol=-0.4188110042 EHeat=0.0830298228
 Alpha=1.5310164411
 GCore=0.0091608161,1.3174322352,2.2970538991
 GCore=0.0004020760,1.4478402069,2.9969436701
 GCore=-0.0013665736,0.5364148598,3.9422854262
 ****
 C       
 PQN=2,2 NValence=4 F0ss=0.4519001705 F0sp=0.4285551882 F0pp=0.3768030831 F2pp=0.1887904774
 G1sp=0.2707101669
 ZetaOverlap=1.6713441132,1.6619479320
 U=-1.6695266360,-1.5233063179
 Beta=-0.5354368758,-0.2699809230 DDN=0,1,0.8755904971 DDN=1,1,0.8085862298
 CoreKO=0.9787444290 KON=0,0,0,0.7703920736 KON=1,0,1,0.8219701441 KON=0,1,1,1.1209152651
 KON=2,1,1,0.8063938609 EISol=-4.4398989268 EHeat=0.2723305520 Alpha=1.4050357334
 DipHyp=1.7510802472
 GCore=0.0007312717,1.1508639233,3.2245509055
 GCore=0.0030126149,1.2502003226,3.2754418495
 GCore=-0.0011285243,1.2958154043,3.2739205023
 GCore=-0.0000824483,1.3074822716,4.2942720249
 ****
 S       
 PQN=3,3 NValence=6 F0ss=0.4458649797 F0sp=0.2366228452 F0pp=0.3121966002 F2pp=0.2919809126
 G1sp=0.2791629797
 ZetaOverlap=2.5310332013,1.7221825933,0.9154880128
 U=-2.2041365964,-1.6851031955
 Beta=-0.1119258746,-0.3083200923 DDN=0,1,0.9816572121 DDN=1,1,0.9152918669
 CoreKO=1.2948564106 KON=0,0,0,1.1043994356 KON=1,0,1,0.8972667233 KON=0,1,1,1.0892901224
 KON=2,1,1,0.7261345414 EISol=-7.0460287497 EHeat=0.1058151363 Alpha=1.2451903982
 DipHyp=1.9632014730
 GCore=-0.0363835713,1.5482749247,1.3933854582
 GCore=-0.0006708644,1.6139326398,2.8276573154
 GCore=0.0007304853,3.5945697527,3.7565787057
 ****
 
 Standard basis: VSTO-6G (5D, 7F)
 Ernie: Thresh=  0.10000D-02 Tol=  0.10000D-05 Strict=F.
  NNHCO=     0 NNPyr=     0 NCTC=     0               EPep=         0.000000000
    EC=        64.396066995  ECS=         1.696252609   EG=         0.165792090
   EHC=         0.000000000  EAt=       -26.480868474  AtH=         1.527256636
 EPDDG=         0.000000000  ECC=        66.258111694 EAtT=        28.008125109
 There are    24 symmetry adapted cartesian basis functions of A   symmetry.
 There are    24 symmetry adapted basis functions of A   symmetry.
    24 basis functions,   144 primitive gaussians,    24 cartesian basis functions
    13 alpha electrons       13 beta electrons
       nuclear repulsion energy        94.2662368033 Hartrees.



 Warning!  S  atom    9 may be hypervalent but has no d functions.



 IExCor=    0 DFT=F Ex=HF Corr=None ExCW=0 ScaHFX=  1.000000
 ScaDFX=  1.000000  1.000000  1.000000  1.000000 ScalE2=  1.000000  1.000000
 IRadAn=      0 IRanWt=     -1 IRanGd=            0 ICorTp=0 IEmpDi=  4
 Integral buffers will be    131072 words long.
 Regular integral format.
 Two-electron integral symmetry is turned off.
 Leave Link  301 at Thu Apr  7 11:09:05 2016, MaxMem=    33554432 cpu:         0.0
 (Enter /home/dustin/Applications/g09/g09/l302.exe)
 Do NDO integrals.
 NPDir=0 NMtPBC=     1 NCelOv=     1 NCel=       1 NClECP=     1 NCelD=      1
         NCelK=      1 NCelE2=     1 NClLst=     1 CellRange=     0.0.
 One-electron integrals computed using PRISM.
 NBasis=    24 RedAO= F EigKep=  0.00D+00  NBF=    24
 NBsUse=    24 1.00D-04 EigRej=  0.00D+00 NBFU=    24
 Leave Link  302 at Thu Apr  7 11:09:05 2016, MaxMem=    33554432 cpu:         0.0
 (Enter /home/dustin/Applications/g09/g09/l303.exe)
 DipDrv:  MaxL=1.
 Leave Link  303 at Thu Apr  7 11:09:05 2016, MaxMem=    33554432 cpu:         0.0
 (Enter /home/dustin/Applications/g09/g09/l401.exe)
 Simple Huckel Guess.
 JPrj=0 DoOrth=F DoCkMO=F.
 Leave Link  401 at Thu Apr  7 11:09:05 2016, MaxMem=    33554432 cpu:         0.0
 (Enter /home/dustin/Applications/g09/g09/l502.exe)
 Closed shell SCF:
 Using DIIS extrapolation, IDIIS=  1040.
 Overlap will be assumed to be unity.
 Two-electron integral symmetry not used.
 Keep J ints in memory in canonical form, NReq=888082.
 IVT=       79475 IEndB=       79475 NGot=    33554432 MDV=    33473473
 LenX=    33473473 LenY=    33472456
 Requested convergence on RMS density matrix=1.00D-08 within 128 cycles.
 Requested convergence on MAX density matrix=1.00D-06.
 Requested convergence on             energy=1.00D-06.
 No special actions if energy rises.
 FoFCou: FMM=F IPFlag=           0 FMFlag=           0 FMFlg1=           0
         NFxFlg=           0 DoJE=F BraDBF=F KetDBF=F FulRan=T
         wScrn=  0.000000 ICntrl=     600 IOpCl=  2 I1Cent=           0 NGrid=           0
         NMat0=    1 NMatS0=     54 NMatT0=    0 NMatD0=    1 NMtDS0=    0 NMtDT0=    0
 Symmetry not used in FoFCou.

 Cycle   1  Pass 1  IDiag  1:
 E= 0.116177921007463    
 DIIS: error= 8.11D-02 at cycle   1 NSaved=   1.
 NSaved= 1 IEnMin= 1 EnMin= 0.116177921007463     IErMin= 1 ErrMin= 8.11D-02
 ErrMax= 8.11D-02  0.00D+00 EMaxC= 1.00D-01 BMatC= 1.08D-01 BMatP= 1.08D-01
 IDIUse=3 WtCom= 1.89D-01 WtEn= 8.11D-01
 Coeff-Com:  0.100D+01
 Coeff-En:   0.100D+01
 Coeff:      0.100D+01
 GapD=    2.000 DampG=2.000 DampE=0.500 DampFc=1.0000 IDamp=-1.
 RMSDP=2.13D-02 MaxDP=2.20D-01              OVMax= 0.00D+00

 Cycle   2  Pass 1  IDiag  1:
 E=-0.172775039870601     Delta-E=       -0.288952960878 Rises=F Damp=F
 DIIS: error= 1.71D-02 at cycle   2 NSaved=   2.
 NSaved= 2 IEnMin= 2 EnMin=-0.172775039870601     IErMin= 2 ErrMin= 1.71D-02
 ErrMax= 1.71D-02  0.00D+00 EMaxC= 1.00D-01 BMatC= 7.58D-03 BMatP= 1.08D-01
 IDIUse=3 WtCom= 8.29D-01 WtEn= 1.71D-01
 Coeff-Com: -0.240D+00 0.124D+01
 Coeff-En:   0.000D+00 0.100D+01
 Coeff:     -0.199D+00 0.120D+01
 RMSDP=7.34D-03 MaxDP=6.72D-02 DE=-2.89D-01 OVMax= 0.00D+00

 Cycle   3  Pass 1  IDiag  3:
 E=-0.198824393332956     Delta-E=       -0.026049353462 Rises=F Damp=F
 DIIS: error= 3.88D-03 at cycle   3 NSaved=   3.
 NSaved= 3 IEnMin= 3 EnMin=-0.198824393332956     IErMin= 3 ErrMin= 3.88D-03
 ErrMax= 3.88D-03  0.00D+00 EMaxC= 1.00D-01 BMatC= 6.74D-04 BMatP= 7.58D-03
 IDIUse=3 WtCom= 9.61D-01 WtEn= 3.88D-02
 Coeff-Com:  0.584D-01-0.566D+00 0.151D+01
 Coeff-En:   0.000D+00 0.000D+00 0.100D+01
 Coeff:      0.561D-01-0.544D+00 0.149D+01
 Gap=     0.308 Goal=   None    Shift=    0.000
 RMSDP=3.59D-03 MaxDP=3.41D-02 DE=-2.60D-02 OVMax= 2.99D-02

 Cycle   4  Pass 1  IDiag  3:
 E=-0.202352714713200     Delta-E=       -0.003528321380 Rises=F Damp=F
 DIIS: error= 1.02D-03 at cycle   4 NSaved=   4.
 NSaved= 4 IEnMin= 4 EnMin=-0.202352714713200     IErMin= 4 ErrMin= 1.02D-03
 ErrMax= 1.02D-03  0.00D+00 EMaxC= 1.00D-01 BMatC= 3.78D-05 BMatP= 6.74D-04
 IDIUse=3 WtCom= 9.90D-01 WtEn= 1.02D-02
 Coeff-Com: -0.193D-01 0.231D+00-0.817D+00 0.161D+01
 Coeff-En:   0.000D+00 0.000D+00 0.000D+00 0.100D+01
 Coeff:     -0.191D-01 0.228D+00-0.808D+00 0.160D+01
 Gap=     0.309 Goal=   None    Shift=    0.000
 RMSDP=1.29D-03 MaxDP=8.30D-03 DE=-3.53D-03 OVMax= 1.28D-02

 Cycle   5  Pass 1  IDiag  3:
 E=-0.202657634141872     Delta-E=       -0.000304919429 Rises=F Damp=F
 DIIS: error= 4.07D-04 at cycle   5 NSaved=   5.
 NSaved= 5 IEnMin= 5 EnMin=-0.202657634141872     IErMin= 5 ErrMin= 4.07D-04
 ErrMax= 4.07D-04  0.00D+00 EMaxC= 1.00D-01 BMatC= 2.12D-06 BMatP= 3.78D-05
 IDIUse=3 WtCom= 9.96D-01 WtEn= 4.07D-03
 Coeff-Com:  0.210D-02-0.348D-01 0.155D+00-0.498D+00 0.138D+01
 Coeff-En:   0.000D+00 0.000D+00 0.000D+00 0.000D+00 0.100D+01
 Coeff:      0.210D-02-0.346D-01 0.154D+00-0.496D+00 0.137D+01
 Gap=     0.310 Goal=   None    Shift=    0.000
 RMSDP=3.58D-04 MaxDP=3.03D-03 DE=-3.05D-04 OVMax= 4.05D-03

 Cycle   6  Pass 1  IDiag  3:
 E=-0.202680021134555     Delta-E=       -0.000022386993 Rises=F Damp=F
 DIIS: error= 1.46D-04 at cycle   6 NSaved=   6.
 NSaved= 6 IEnMin= 6 EnMin=-0.202680021134555     IErMin= 6 ErrMin= 1.46D-04
 ErrMax= 1.46D-04  0.00D+00 EMaxC= 1.00D-01 BMatC= 2.75D-07 BMatP= 2.12D-06
 IDIUse=3 WtCom= 9.99D-01 WtEn= 1.46D-03
 Coeff-Com:  0.363D-03 0.142D-02-0.257D-01 0.171D+00-0.875D+00 0.173D+01
 Coeff-En:   0.000D+00 0.000D+00 0.000D+00 0.000D+00 0.000D+00 0.100D+01
 Coeff:      0.362D-03 0.142D-02-0.257D-01 0.171D+00-0.874D+00 0.173D+01
 Gap=     0.310 Goal=   None    Shift=    0.000
 RMSDP=1.67D-04 MaxDP=1.46D-03 DE=-2.24D-05 OVMax= 2.00D-03

 Cycle   7  Pass 1  IDiag  3:
 E=-0.202683433089305     Delta-E=       -0.000003411955 Rises=F Damp=F
 DIIS: error= 2.50D-05 at cycle   7 NSaved=   7.
 NSaved= 7 IEnMin= 7 EnMin=-0.202683433089305     IErMin= 7 ErrMin= 2.50D-05
 ErrMax= 2.50D-05  0.00D+00 EMaxC= 1.00D-01 BMatC= 2.06D-08 BMatP= 2.75D-07
 IDIUse=1 WtCom= 1.00D+00 WtEn= 0.00D+00
 Coeff-Com: -0.142D-03-0.700D-03 0.113D-01-0.755D-01 0.401D+00-0.941D+00
 Coeff-Com:  0.160D+01
 Coeff:     -0.142D-03-0.700D-03 0.113D-01-0.755D-01 0.401D+00-0.941D+00
 Coeff:      0.160D+01
 Gap=     0.310 Goal=   None    Shift=    0.000
 RMSDP=4.12D-05 MaxDP=3.11D-04 DE=-3.41D-06 OVMax= 4.54D-04

 Cycle   8  Pass 1  IDiag  3:
 E=-0.202683653563398     Delta-E=       -0.000000220474 Rises=F Damp=F
 DIIS: error= 7.07D-06 at cycle   8 NSaved=   8.
 NSaved= 8 IEnMin= 8 EnMin=-0.202683653563398     IErMin= 8 ErrMin= 7.07D-06
 ErrMax= 7.07D-06  0.00D+00 EMaxC= 1.00D-01 BMatC= 1.53D-09 BMatP= 2.06D-08
 IDIUse=1 WtCom= 1.00D+00 WtEn= 0.00D+00
 Coeff-Com:  0.448D-04-0.658D-03 0.290D-02-0.816D-02 0.236D-01-0.133D-01
 Coeff-Com: -0.290D+00 0.129D+01
 Coeff:      0.448D-04-0.658D-03 0.290D-02-0.816D-02 0.236D-01-0.133D-01
 Coeff:     -0.290D+00 0.129D+01
 Gap=     0.310 Goal=   None    Shift=    0.000
 RMSDP=9.52D-06 MaxDP=7.31D-05 DE=-2.20D-07 OVMax= 9.29D-05

 Cycle   9  Pass 1  IDiag  3:
 E=-0.202683666306626     Delta-E=       -0.000000012743 Rises=F Damp=F
 DIIS: error= 1.58D-06 at cycle   9 NSaved=   9.
 NSaved= 9 IEnMin= 9 EnMin=-0.202683666306626     IErMin= 9 ErrMin= 1.58D-06
 ErrMax= 1.58D-06  0.00D+00 EMaxC= 1.00D-01 BMatC= 8.40D-11 BMatP= 1.53D-09
 IDIUse=1 WtCom= 1.00D+00 WtEn= 0.00D+00
 Coeff-Com:  0.109D-04 0.548D-04-0.908D-03 0.561D-02-0.288D-01 0.592D-01
 Coeff-Com: -0.127D-01-0.391D+00 0.137D+01
 Coeff:      0.109D-04 0.548D-04-0.908D-03 0.561D-02-0.288D-01 0.592D-01
 Coeff:     -0.127D-01-0.391D+00 0.137D+01
 Gap=     0.310 Goal=   None    Shift=    0.000
 RMSDP=1.78D-06 MaxDP=1.81D-05 DE=-1.27D-08 OVMax= 1.26D-05

 Cycle  10  Pass 1  IDiag  3:
 E=-0.202683666861262     Delta-E=       -0.000000000555 Rises=F Damp=F
 DIIS: error= 3.30D-07 at cycle  10 NSaved=  10.
 NSaved=10 IEnMin=10 EnMin=-0.202683666861262     IErMin=10 ErrMin= 3.30D-07
 ErrMax= 3.30D-07  0.00D+00 EMaxC= 1.00D-01 BMatC= 4.44D-12 BMatP= 8.40D-11
 IDIUse=1 WtCom= 1.00D+00 WtEn= 0.00D+00
 Coeff-Com: -0.477D-05-0.423D-04 0.521D-03-0.322D-02 0.162D-01-0.345D-01
 Coeff-Com:  0.282D-01 0.117D+00-0.627D+00 0.150D+01
 Coeff:     -0.477D-05-0.423D-04 0.521D-03-0.322D-02 0.162D-01-0.345D-01
 Coeff:      0.282D-01 0.117D+00-0.627D+00 0.150D+01
 Gap=     0.310 Goal=   None    Shift=    0.000
 RMSDP=4.10D-07 MaxDP=3.86D-06 DE=-5.55D-10 OVMax= 4.28D-06

 Cycle  11  Pass 1  IDiag  3:
 E=-0.202683666893563     Delta-E=       -0.000000000032 Rises=F Damp=F
 DIIS: error= 9.81D-08 at cycle  11 NSaved=  11.
 NSaved=11 IEnMin=11 EnMin=-0.202683666893563     IErMin=11 ErrMin= 9.81D-08
 ErrMax= 9.81D-08  0.00D+00 EMaxC= 1.00D-01 BMatC= 3.95D-13 BMatP= 4.44D-12
 IDIUse=1 WtCom= 1.00D+00 WtEn= 0.00D+00
 Coeff-Com:  0.183D-05 0.318D-04-0.309D-03 0.181D-02-0.882D-02 0.184D-01
 Coeff-Com: -0.129D-01-0.748D-01 0.378D+00-0.106D+01 0.175D+01
 Coeff:      0.183D-05 0.318D-04-0.309D-03 0.181D-02-0.882D-02 0.184D-01
 Coeff:     -0.129D-01-0.748D-01 0.378D+00-0.106D+01 0.175D+01
 Gap=     0.310 Goal=   None    Shift=    0.000
 RMSDP=1.63D-07 MaxDP=1.45D-06 DE=-3.23D-11 OVMax= 1.93D-06

 Cycle  12  Pass 1  IDiag  3:
 E=-0.202683666897656     Delta-E=       -0.000000000004 Rises=F Damp=F
 DIIS: error= 2.77D-08 at cycle  12 NSaved=  12.
 NSaved=12 IEnMin=12 EnMin=-0.202683666897656     IErMin=12 ErrMin= 2.77D-08
 ErrMax= 2.77D-08  0.00D+00 EMaxC= 1.00D-01 BMatC= 2.94D-14 BMatP= 3.95D-13
 IDIUse=1 WtCom= 1.00D+00 WtEn= 0.00D+00
 Coeff-Com: -0.471D-06-0.176D-04 0.145D-03-0.831D-03 0.395D-02-0.819D-02
 Coeff-Com:  0.631D-02 0.307D-01-0.163D+00 0.487D+00-0.101D+01 0.166D+01
 Coeff:     -0.471D-06-0.176D-04 0.145D-03-0.831D-03 0.395D-02-0.819D-02
 Coeff:      0.631D-02 0.307D-01-0.163D+00 0.487D+00-0.101D+01 0.166D+01
 Gap=     0.310 Goal=   None    Shift=    0.000
 RMSDP=4.77D-08 MaxDP=4.42D-07 DE=-4.09D-12 OVMax= 5.98D-07

 Cycle  13  Pass 1  IDiag  3:
 E=-0.202683666897926     Delta-E=        0.000000000000 Rises=F Damp=F
 DIIS: error= 6.78D-09 at cycle  13 NSaved=  13.
 NSaved=13 IEnMin=13 EnMin=-0.202683666897926     IErMin=13 ErrMin= 6.78D-09
 ErrMax= 6.78D-09  0.00D+00 EMaxC= 1.00D-01 BMatC= 2.31D-15 BMatP= 2.94D-14
 IDIUse=1 WtCom= 1.00D+00 WtEn= 0.00D+00
 Coeff-Com: -0.220D-08 0.844D-05-0.597D-04 0.326D-03-0.150D-02 0.304D-02
 Coeff-Com: -0.211D-02-0.130D-01 0.656D-01-0.193D+00 0.428D+00-0.913D+00
 Coeff-Com:  0.163D+01
 Coeff:     -0.220D-08 0.844D-05-0.597D-04 0.326D-03-0.150D-02 0.304D-02
 Coeff:     -0.211D-02-0.130D-01 0.656D-01-0.193D+00 0.428D+00-0.913D+00
 Coeff:      0.163D+01
 Gap=     0.310 Goal=   None    Shift=    0.000
 RMSDP=1.18D-08 MaxDP=1.03D-07 DE=-2.70D-13 OVMax= 1.24D-07

 Cycle  14  Pass 1  IDiag  3:
 E=-0.202683666897812     Delta-E=        0.000000000000 Rises=F Damp=F
 DIIS: error= 1.18D-09 at cycle  14 NSaved=  14.
 NSaved=14 IEnMin=13 EnMin=-0.202683666897926     IErMin=14 ErrMin= 1.18D-09
 ErrMax= 1.18D-09  0.00D+00 EMaxC= 1.00D-01 BMatC= 1.15D-16 BMatP= 2.31D-15
 IDIUse=1 WtCom= 1.00D+00 WtEn= 0.00D+00
 Coeff-Com:  0.300D-07-0.193D-05 0.123D-04-0.662D-04 0.293D-03-0.587D-03
 Coeff-Com:  0.383D-03 0.280D-02-0.136D-01 0.400D-01-0.923D-01 0.224D+00
 Coeff-Com: -0.585D+00 0.142D+01
 Coeff:      0.300D-07-0.193D-05 0.123D-04-0.662D-04 0.293D-03-0.587D-03
 Coeff:      0.383D-03 0.280D-02-0.136D-01 0.400D-01-0.923D-01 0.224D+00
 Coeff:     -0.585D+00 0.142D+01
 Gap=     0.310 Goal=   None    Shift=    0.000
 RMSDP=2.43D-09 MaxDP=1.30D-08 DE= 1.14D-13 OVMax= 1.91D-08

 Cycle  15  Pass 2  IDiag  1:
 SCF Done:  E(RAM1) = -0.202683666898     A.U. after   15 cycles
            NFock= 14  Conv=0.24D-08     -V/T= 0.9866
 KE=-1.515094395432D+01 PE=-1.547197067144D+02 EE= 7.540173019851D+01
 Leave Link  502 at Thu Apr  7 11:09:05 2016, MaxMem=    33554432 cpu:         0.0
 (Enter /home/dustin/Applications/g09/g09/l801.exe)
 Range of M.O.s used for correlation:     1    24
 NBasis=    24 NAE=    13 NBE=    13 NFC=     0 NFV=     0
 NROrb=     24 NOA=    13 NOB=    13 NVA=    11 NVB=    11
 Leave Link  801 at Thu Apr  7 11:09:05 2016, MaxMem=    33554432 cpu:         0.0
 (Enter /home/dustin/Applications/g09/g09/l1101.exe)
 Using compressed storage, NAtomX=     9.
 Will process     10 centers per pass.
 Leave Link 1101 at Thu Apr  7 11:09:05 2016, MaxMem=    33554432 cpu:         0.0
 (Enter /home/dustin/Applications/g09/g09/l1102.exe)
 Symmetrizing basis deriv contribution to polar:
 IMax=3 JMax=2 DiffMx= 0.00D+00
 Leave Link 1102 at Thu Apr  7 11:09:05 2016, MaxMem=    33554432 cpu:         0.0
 (Enter /home/dustin/Applications/g09/g09/l1110.exe)
 Forming Gx(P) for the SCF density, NAtomX=     9.
 Integral derivatives from FoFJK, PRISM(SPDF).
 Do as many integral derivatives as possible in FoFJK.
 G2DrvN: MDV=      33495365.
 G2DrvN: will do    10 centers at a time, making    1 passes.
 Calling FoFCou, ICntrl=  3107 FMM=F I1Cent=   0 AccDes= 0.00D+00.
 FoFJK:  IHMeth= 8 ICntrl=    3107 DoSepK=F KAlg= 0 I1Cent=   0 FoldK=F
 IRaf=         0 NMat=   1 IRICut=       1 DoRegI=T DoRafI=F ISym2E= 0.
 FoFCou: FMM=F IPFlag=           0 FMFlag=      100000 FMFlg1=           0
         NFxFlg=           0 DoJE=F BraDBF=F KetDBF=F FulRan=T
         wScrn=  0.000000 ICntrl=    3107 IOpCl=  0 I1Cent=           0 NGrid=           0
         NMat0=    1 NMatS0=      1 NMatT0=    0 NMatD0=    1 NMtDS0=    0 NMtDT0=    0
 Symmetry not used in FoFCou.
 End of G2Drv F.D. properties file   721 does not exist.
 End of G2Drv F.D. properties file   722 does not exist.
 End of G2Drv F.D. properties file   788 does not exist.
 Leave Link 1110 at Thu Apr  7 11:09:05 2016, MaxMem=    33554432 cpu:         0.0
 (Enter /home/dustin/Applications/g09/g09/l1002.exe)
 Minotr:  Closed shell wavefunction.
          IDoAtm=111111111
          Direct CPHF calculation.
          Differentiating once with respect to nuclear coordinates.
          Electric field/nuclear overlap derivatives assumed to be zero.
          Requested convergence is 1.0D-08 RMS, and 1.0D-07 maximum.
          NewPWx=T KeepS1=F KeepF1=F KeepIn=T MapXYZ=F SortEE=F KeepMc=T.
          MDV=      33495423 using IRadAn=       2.
 Keep J ints in memory in canonical form, NReq=871704.
 FoFCou: FMM=F IPFlag=           0 FMFlag=           0 FMFlg1=           0
         NFxFlg=           0 DoJE=F BraDBF=F KetDBF=F FulRan=T
         wScrn=  0.000000 ICntrl=     600 IOpCl=  2 I1Cent=           0 NGrid=           0
         NMat0=    1 NMatS0=     54 NMatT0=    0 NMatD0=    1 NMtDS0=    0 NMtDT0=    0
 Symmetry not used in FoFCou.
          Solving linear equations separately, MaxMat=       0.
          There are    30 degrees of freedom in the 1st order CPHF.  IDoFFX=5 NUNeed=    30.
 LinEq1:  Iter=  0 NonCon=    27 RMS=2.33D-02 Max=9.78D-02 NDo=    27
 AX will form    30 AO Fock derivatives at one time.
 LinEq1:  Iter=  1 NonCon=    27 RMS=3.95D-03 Max=2.92D-02 NDo=    30
 LinEq1:  Iter=  2 NonCon=    27 RMS=9.79D-04 Max=9.66D-03 NDo=    30
 LinEq1:  Iter=  3 NonCon=    27 RMS=1.44D-04 Max=8.81D-04 NDo=    30
 LinEq1:  Iter=  4 NonCon=    27 RMS=2.13D-05 Max=1.18D-04 NDo=    30
 LinEq1:  Iter=  5 NonCon=    27 RMS=3.30D-06 Max=1.46D-05 NDo=    30
 LinEq1:  Iter=  6 NonCon=    27 RMS=5.64D-07 Max=2.61D-06 NDo=    30
 LinEq1:  Iter=  7 NonCon=    27 RMS=9.44D-08 Max=5.85D-07 NDo=    30
 LinEq1:  Iter=  8 NonCon=     3 RMS=1.28D-08 Max=5.23D-08 NDo=    30
 LinEq1:  Iter=  9 NonCon=     0 RMS=1.76D-09 Max=6.96D-09 NDo=    30
 Linear equations converged to 1.000D-08 1.000D-07 after     9 iterations.
 End of Minotr F.D. properties file   721 does not exist.
 End of Minotr F.D. properties file   722 does not exist.
 End of Minotr F.D. properties file   788 does not exist.
 Leave Link 1002 at Thu Apr  7 11:09:05 2016, MaxMem=    33554432 cpu:         0.0
 (Enter /home/dustin/Applications/g09/g09/l601.exe)
 Copying SCF densities to generalized density rwf, IOpCl= 0 IROHF=0.

 **********************************************************************

            Population analysis using the SCF density.

 **********************************************************************

 Orbital symmetries:
       Occupied  (A) (A) (A) (A) (A) (A) (A) (A) (A) (A) (A) (A)
                 (A)
       Virtual   (A) (A) (A) (A) (A) (A) (A) (A) (A) (A) (A)
 The electronic state is 1-A.
 Alpha  occ. eigenvalues --   -1.32105  -1.11943  -0.98162  -0.83159  -0.74806
 Alpha  occ. eigenvalues --   -0.74544  -0.61842  -0.59717  -0.58249  -0.57218
 Alpha  occ. eigenvalues --   -0.54943  -0.45939  -0.40732
 Alpha virt. eigenvalues --   -0.09718  -0.03944  -0.03658   0.02491   0.06454
 Alpha virt. eigenvalues --    0.08791   0.12829   0.20333   0.23897   0.28021
 Alpha virt. eigenvalues --    0.35590
          Condensed to atoms (all electrons):
               1          2          3          4          5          6
     1  C    4.127139   0.000000   0.000000   0.000000   0.000000   0.000000
     2  C    0.000000   3.735819   0.000000   0.000000   0.000000   0.000000
     3  C    0.000000   0.000000   3.768415   0.000000   0.000000   0.000000
     4  C    0.000000   0.000000   0.000000   4.146726   0.000000   0.000000
     5  H    0.000000   0.000000   0.000000   0.000000   0.954471   0.000000
     6  H    0.000000   0.000000   0.000000   0.000000   0.000000   0.992614
     7  H    0.000000   0.000000   0.000000   0.000000   0.000000   0.000000
     8  H    0.000000   0.000000   0.000000   0.000000   0.000000   0.000000
     9  S    0.000000   0.000000   0.000000   0.000000   0.000000   0.000000
               7          8          9
     1  C    0.000000   0.000000   0.000000
     2  C    0.000000   0.000000   0.000000
     3  C    0.000000   0.000000   0.000000
     4  C    0.000000   0.000000   0.000000
     5  H    0.000000   0.000000   0.000000
     6  H    0.000000   0.000000   0.000000
     7  H    1.003902   0.000000   0.000000
     8  H    0.000000   0.991550   0.000000
     9  S    0.000000   0.000000   6.279363
 Mulliken charges:
               1
     1  C   -0.127139
     2  C    0.264181
     3  C    0.231585
     4  C   -0.146726
     5  H    0.045529
     6  H    0.007386
     7  H   -0.003902
     8  H    0.008450
     9  S   -0.279363
 Sum of Mulliken charges =   0.00000
 Mulliken charges with hydrogens summed into heavy atoms:
               1
     1  C   -0.118689
     2  C    0.260278
     3  C    0.238971
     4  C   -0.101197
     9  S   -0.279363
 APT charges:
               1
     1  C   -0.127139
     2  C    0.264181
     3  C    0.231585
     4  C   -0.146726
     5  H    0.045529
     6  H    0.007386
     7  H   -0.003902
     8  H    0.008450
     9  S   -0.279363
 Sum of APT charges =   0.00000
 APT charges with hydrogens summed into heavy atoms:
               1
     1  C   -0.118689
     2  C    0.260278
     3  C    0.238971
     4  C   -0.101197
     9  S   -0.279363
 Charge=              0.0000 electrons
 Dipole moment (field-independent basis, Debye):
    X=              0.3153    Y=              0.0741    Z=              0.0746  Tot=              0.3324
 N-N= 9.426623680335D+01 E-N=-1.547197066692D+02  KE=-1.515094395432D+01
  Exact polarizability:   0.000   0.000   0.000   0.000   0.000   0.000
 Approx polarizability:  50.787   0.857  56.416   0.353  -0.833   6.888
 Leave Link  601 at Thu Apr  7 11:09:05 2016, MaxMem=    33554432 cpu:         0.0
 (Enter /home/dustin/Applications/g09/g09/l701.exe)
 Compute integral second derivatives.
 ... and contract with generalized density number  0.
 Leave Link  701 at Thu Apr  7 11:09:05 2016, MaxMem=    33554432 cpu:         0.0
 (Enter /home/dustin/Applications/g09/g09/l702.exe)
 L702 exits ... SP integral derivatives will be done elsewhere.
 Leave Link  702 at Thu Apr  7 11:09:05 2016, MaxMem=    33554432 cpu:         0.0
 (Enter /home/dustin/Applications/g09/g09/l703.exe)
 Compute integral second derivatives, UseDBF=F ICtDFT=           0.
 Integral derivatives from FoFJK, PRISM(SPDF).
 Calling FoFJK, ICntrl=    100147 FMM=F ISym2X=0 I1Cent= 0 IOpClX= 0 NMat=1 NMatS=1 NMatT=0.
 FoFJK:  IHMeth= 8 ICntrl=  100147 DoSepK=F KAlg= 0 I1Cent=   0 FoldK=F
 IRaf=         0 NMat=   1 IRICut=       1 DoRegI=T DoRafI=F ISym2E= 0.
 FoFCou: FMM=F IPFlag=           0 FMFlag=      100000 FMFlg1=         800
         NFxFlg=           0 DoJE=F BraDBF=F KetDBF=F FulRan=T
         wScrn=  0.000000 ICntrl=  100147 IOpCl=  0 I1Cent=           0 NGrid=           0
         NMat0=    1 NMatS0=      1 NMatT0=    0 NMatD0=    1 NMtDS0=    0 NMtDT0=    0
 Symmetry not used in FoFCou.
 Leave Link  703 at Thu Apr  7 11:09:05 2016, MaxMem=    33554432 cpu:         0.0
 (Enter /home/dustin/Applications/g09/g09/l716.exe)
 Dipole        = 1.24055607D-01 2.91646251D-02 2.93508770D-02
 Polarizability= 0.00000000D+00 0.00000000D+00 0.00000000D+00
                 0.00000000D+00 0.00000000D+00 0.00000000D+00
 ***** Axes restored to original set *****
 -------------------------------------------------------------------
 Center     Atomic                   Forces (Hartrees/Bohr)
 Number     Number              X              Y              Z
 -------------------------------------------------------------------
      1        6          -0.166661183   -0.078483505    0.002991661
      2        6           0.151689704    0.037089379    0.003081753
      3        6           0.080209692   -0.026625566    0.026258236
      4        6          -0.072656192    0.130210749   -0.017414606
      5        1           0.012031787    0.000436715    0.005965696
      6        1          -0.002038661   -0.019724028   -0.015996219
      7        1          -0.014917230   -0.005361970   -0.005236853
      8        1           0.057267987   -0.047571028    0.000197655
      9       16          -0.044925904    0.010029254    0.000152677
 -------------------------------------------------------------------
 Cartesian Forces:  Max     0.166661183 RMS     0.060085868
 Force constants in Cartesian coordinates: 
                1             2             3             4             5 
      1  0.680720D+00
      2 -0.242949D+00  0.105014D+01
      3 -0.454153D-02  0.156960D-01  0.156529D+00
      4 -0.195172D+00  0.885131D-02  0.339711D-02  0.411342D+00
      5 -0.710139D-01 -0.109109D+00 -0.231451D-02  0.288437D-01  0.749768D+00
      6  0.305033D-02  0.236938D-02 -0.120138D+00  0.100887D-02 -0.585072D-01
      7  0.437112D-02  0.865453D-01  0.438818D-02  0.139098D-02 -0.912700D-02
      8  0.259814D-01 -0.589120D-01 -0.204818D-03  0.971643D-02 -0.463588D-01
      9  0.194070D-02  0.440344D-02  0.109051D-01 -0.191283D-02  0.124780D-02
     10 -0.460888D-01 -0.482542D-01 -0.344019D-02  0.104192D-02 -0.301163D-01
     11  0.579664D-01 -0.672769D+00 -0.146002D-01 -0.957286D-01 -0.461505D-01
     12 -0.151251D-02 -0.221033D-01 -0.679822D-01  0.136267D-02 -0.146663D-02
     13 -0.806843D-03 -0.110200D-01  0.537663D-03 -0.261682D-03 -0.603430D-05
     14 -0.259477D-01 -0.347061D-01 -0.569265D-03  0.547252D-04 -0.200142D-02
     15  0.511581D-03  0.101590D-02  0.120375D-01 -0.711650D-03  0.131106D-05
     16 -0.149155D-02  0.607457D-03 -0.279278D-03 -0.255715D-02 -0.123808D-02
     17  0.621590D-03  0.195012D-03 -0.108265D-02 -0.218946D-02 -0.124157D-02
     18 -0.552134D-03 -0.133273D-02  0.459869D-02  0.420822D-03 -0.413135D-03
     19 -0.147350D-01 -0.288546D-01  0.175548D-02 -0.343650D-01 -0.502100D-01
     20 -0.173927D-01 -0.173529D-01  0.288895D-02 -0.497456D-01 -0.394048D+00
     21  0.856493D-04  0.145529D-02  0.106475D-01  0.850313D-02  0.506905D-01
     22 -0.362403D+00  0.239845D+00  0.322098D-02 -0.379322D-01  0.575040D-02
     23  0.238713D+00 -0.162799D+00 -0.168719D-02 -0.582938D-02  0.650869D-02
     24  0.451756D-02 -0.964714D-03 -0.209807D-01 -0.141958D-02  0.241064D-03
     25 -0.643953D-01 -0.477277D-02 -0.503851D-02 -0.143486D+00  0.127117D+00
     26  0.340209D-01  0.531617D-02  0.187347D-02  0.106027D+00 -0.157367D+00
     27 -0.349965D-02 -0.539112D-03  0.143835D-01 -0.106486D-01  0.105207D-01
                6             7             8             9            10 
      6  0.167518D+00
      7 -0.113900D-02  0.533410D+00
      8 -0.594814D-03 -0.125635D+00  0.668656D+00
      9  0.121018D-02 -0.424386D-03  0.642113D-01  0.177402D+00
     10  0.692167D-03 -0.305700D+00  0.142183D+00 -0.266553D-02  0.679791D+00
     11 -0.425769D-02  0.731790D-01 -0.134033D+00 -0.549801D-03  0.815868D-01
     12  0.111053D-01 -0.607250D-02  0.717326D-02 -0.110808D+00 -0.189014D-02
     13  0.124964D-03 -0.440752D-01 -0.419180D-02 -0.478020D-03 -0.243276D+00
     14  0.903120D-04  0.820834D-03  0.545165D-02  0.496371D-03 -0.159489D+00
     15  0.412879D-02 -0.134177D-02  0.138703D-03  0.129492D-01  0.119145D-01
     16 -0.360874D-03 -0.507596D-01  0.519218D-01  0.126035D-01 -0.112078D-01
     17 -0.838253D-03  0.553254D-01 -0.318239D+00 -0.619364D-01  0.148565D-01
     18  0.256799D-02  0.144466D-01 -0.637277D-01 -0.652817D-01 -0.465012D-03
     19  0.757780D-02 -0.226381D-02  0.129972D-02 -0.300972D-03 -0.159940D-02
     20  0.494613D-01  0.118970D-02 -0.157035D-02  0.650030D-03 -0.144732D-03
     21 -0.472209D-01  0.144951D-03  0.104742D-03  0.305124D-02 -0.303152D-03
     22  0.117696D-03 -0.683256D-04  0.230272D-03  0.906150D-04 -0.186781D-02
     23 -0.176146D-03  0.211909D-03 -0.177915D-02 -0.147170D-03  0.294812D-01
     24  0.116792D-01 -0.804328D-03 -0.677340D-04  0.446279D-02  0.864862D-03
     25 -0.110718D-01 -0.136305D+00 -0.101506D+00 -0.885309D-02 -0.710949D-01
     26  0.124532D-01 -0.825109D-01 -0.113216D+00 -0.837564D-02 -0.301033D-01
     27 -0.308510D-01 -0.919777D-02 -0.703280D-02 -0.338902D-01 -0.470742D-02
               11            12            13            14            15 
     11  0.106424D+01
     12  0.149023D-01  0.173896D+00
     13 -0.167436D+00  0.110125D-01  0.289137D+00
     14 -0.154275D+00  0.795506D-02  0.183326D+00  0.184663D+00
     15  0.646725D-02 -0.495631D-01 -0.110080D-01 -0.809269D-02  0.233158D-01
     16  0.278394D-01  0.242535D-02  0.215797D-03  0.596406D-03  0.562541D-04
     17 -0.171961D-01 -0.384550D-02  0.225779D-03  0.553379D-03  0.565579D-03
     18 -0.111429D-02  0.929714D-02  0.772499D-05 -0.218717D-04 -0.237293D-02
     19 -0.268045D-03 -0.175606D-03 -0.922974D-04 -0.285274D-03  0.953973D-05
     20 -0.208780D-03  0.652150D-03 -0.149547D-03 -0.257361D-03 -0.114301D-03
     21  0.688668D-03  0.438238D-02 -0.180923D-04  0.968294D-04 -0.531299D-03
     22  0.150060D-01  0.500268D-03  0.759718D-03 -0.106311D-03 -0.861790D-04
     23 -0.398197D-01 -0.769544D-03  0.163594D-04 -0.605103D-04  0.502505D-04
     24 -0.191471D-02  0.147626D-01 -0.920713D-04 -0.470311D-04 -0.223805D-02
     25  0.785623D-02 -0.565006D-02 -0.160058D-02  0.103068D-02  0.655706D-03
     26  0.212022D-03 -0.249757D-02 -0.764095D-03  0.632983D-03 -0.318787D-04
     27  0.378377D-03  0.149100D-01 -0.867202D-04  0.922916D-04  0.227402D-02
               16            17            18            19            20 
     16  0.637865D-01
     17 -0.647150D-01  0.356026D+00
     18 -0.135457D-01  0.695674D-01  0.488471D-01
     19  0.326348D-03  0.292894D-03  0.104223D-03  0.496743D-01
     20 -0.232072D-03 -0.346103D-03 -0.175742D-03  0.624407D-01  0.432542D+00
     21  0.119903D-03  0.190347D-03 -0.406854D-03 -0.817607D-02 -0.551439D-01
     22 -0.141974D-03  0.119500D-03  0.222384D-04  0.553034D-03  0.303081D-05
     23  0.291499D-03 -0.233062D-03 -0.697345D-04 -0.754401D-04  0.519344D-03
     24  0.108470D-04  0.186729D-03 -0.591484D-03  0.682979D-04 -0.388833D-03
     25  0.182939D-02 -0.453703D-02 -0.438766D-03  0.250173D-02  0.403128D-02
     26 -0.150713D-01 -0.195184D-01 -0.271213D-02  0.156600D-01 -0.192774D-01
     27 -0.102999D-02 -0.280727D-02  0.334207D-02 -0.862711D-03  0.217042D-02
               21            22            23            24            25 
     21  0.286655D-01
     22 -0.232298D-04  0.402655D+00
     23 -0.237125D-04 -0.261688D+00  0.197469D+00
     24 -0.246977D-02 -0.367107D-02  0.295281D-02 -0.666960D-02
     25 -0.333102D-03 -0.155448D-02 -0.112122D-02  0.525448D-03  0.414105D+00
     26  0.194128D-02  0.839510D-03  0.194096D-03  0.232311D-05 -0.280980D-01
     27  0.388219D-02 -0.171324D-03 -0.129569D-03  0.204516D-02  0.302043D-01
               26            27 
     26  0.303023D+00
     27 -0.265315D-02  0.239046D-01
 Leave Link  716 at Thu Apr  7 11:09:05 2016, MaxMem=    33554432 cpu:         0.0
 (Enter /home/dustin/Applications/g09/g09/l103.exe)

 GradGradGradGradGradGradGradGradGradGradGradGradGradGradGradGradGradGrad
 Berny optimization.
 Search for a saddle point.
 Step number   1 out of a maximum of   37
 All quantities printed in internal units (Hartrees-Bohrs-Radians)
 Swapping is turned off.
 Second derivative matrix not updated -- analytic derivatives used.
 ITU=  0
     Eigenvalues ---   -0.00291   0.02046   0.02252   0.02758   0.04773
     Eigenvalues ---    0.05407   0.08597   0.12206   0.13188   0.14397
     Eigenvalues ---    0.24857   0.32093   0.34123   0.39821   0.62031
     Eigenvalues ---    0.64802   0.78243   1.06963   1.10146   1.14086
     Eigenvalues ---    1.86331
 Eigenvectors required to have negative eigenvalues:
                          Z8        Z7        Z5        Z4        Z9
   1                    0.85389  -0.25337  -0.23797  -0.19627   0.18349
                          Z2        Z6        Z1        Y6        X9
   1                   -0.17657   0.17349  -0.12030  -0.02867  -0.02054
 RFO step:  Lambda0=1.922357807D-03 Lambda=-1.07254552D-01.
 Linear search not attempted -- option 19 set.
 Maximum step size (   0.300) exceeded in Quadratic search.
    -- Step size scaled by   0.406
 TrRot=  0.000947  0.000533  0.007170 -0.257985 -0.005234  0.258978
 Variable       Old X    -DE/DX   Delta X   Delta X   Delta X     New X
                                 (Linear)    (Quad)   (Total)
    X1        1.73764  -0.16666   0.00000  -0.07027  -0.06826   1.66937
    Y1       -1.27693  -0.07848   0.00000  -0.02810  -0.02585  -1.30278
    Z1        0.00674   0.00299   0.00000   0.03428   0.05163   0.05837
    X2       -0.92769   0.15169   0.00000   0.09263   0.09558  -0.83210
    Y2       -2.33230   0.03709   0.00000   0.01364   0.01343  -2.31887
    Z2        0.00866   0.00308   0.00000   0.05015   0.05620   0.06486
    X3       -0.71658   0.08021   0.00000   0.03371   0.03211  -0.68446
    Y3        2.49460  -0.02663   0.00000  -0.01113  -0.01126   2.48335
    Z3       -0.00258   0.02626   0.00000   0.02027   0.02066   0.01808
    X4        1.72813  -0.07266   0.00000  -0.03086  -0.03180   1.69633
    Y4        1.25900   0.13021   0.00000   0.03882   0.04119   1.30019
    Z4        0.08162  -0.01741   0.00000   0.03381   0.04783   0.12945
    X5        3.34078   0.01203   0.00000   0.02319   0.02130   3.36208
    Y5        2.50402   0.00044   0.00000  -0.02000  -0.01603   2.48798
    Z5       -0.01113   0.00597   0.00000   0.07731   0.09817   0.08704
    X6       -1.09019  -0.00204   0.00000  -0.01322  -0.01865  -1.10885
    Y6        4.47273  -0.01972   0.00000  -0.01117  -0.01123   4.46150
    Z6        0.47118  -0.01600   0.00000  -0.08041  -0.08480   0.38638
    X7       -1.17645  -0.01492   0.00000  -0.03666  -0.03315  -1.20960
    Y7       -4.29620  -0.00536   0.00000   0.01566   0.01544  -4.28077
    Z7        0.29010  -0.00524   0.00000   0.04307   0.04983   0.33993
    X8        3.32049   0.05727   0.00000   0.01034   0.01468   3.33518
    Y8       -2.32110  -0.04757   0.00000  -0.00332   0.00023  -2.32087
    Z8       -0.00830   0.00020   0.00000  -0.21786  -0.19072  -0.19901
    X9       -3.01939  -0.04493   0.00000  -0.01390  -0.01182  -3.03120
    Y9        0.12182   0.01003   0.00000  -0.00312  -0.00593   0.11589
    Z9       -0.20029   0.00015   0.00000  -0.04047  -0.04880  -0.24909
         Item               Value     Threshold  Converged?
 Maximum Force            0.166661     0.000450     NO 
 RMS     Force            0.060086     0.000300     NO 
 Maximum Displacement     0.190716     0.001800     NO 
 RMS     Displacement     0.057099     0.001200     NO 
 Predicted change in Energy=-3.530300D-02
 Lowest energy point so far.  Saving SCF results.
 GradGradGradGradGradGradGradGradGradGradGradGradGradGradGradGradGradGrad

 Leave Link  103 at Thu Apr  7 11:09:05 2016, MaxMem=    33554432 cpu:         0.0
 (Enter /home/dustin/Applications/g09/g09/l202.exe)
                          Input orientation:                          
 ---------------------------------------------------------------------
 Center     Atomic      Atomic             Coordinates (Angstroms)
 Number     Number       Type             X           Y           Z
 ---------------------------------------------------------------------
      1          6           0        0.883395   -0.689401    0.030888
      2          6           0       -0.440330   -1.227094    0.034324
      3          6           0       -0.362203    1.314131    0.009566
      4          6           0        0.897660    0.688032    0.068501
      5          1           0        1.779134    1.316584    0.046060
      6          1           0       -0.586777    2.360925    0.204463
      7          1           0       -0.640092   -2.265284    0.179886
      8          1           0        1.764901   -1.228151   -0.105314
      9         16           0       -1.604042    0.061327   -0.131810
 ---------------------------------------------------------------------
                    Distance matrix (angstroms):
                    1          2          3          4          5
     1  C    0.000000
     2  C    1.428766   0.000000
     3  C    2.359261   2.542546   0.000000
     4  C    1.378021   2.336470   1.408093   0.000000
     5  H    2.196943   3.375864   2.141650   1.082857   0.000000
     6  H    3.390578   3.595034   1.088207   2.240671   2.590998
     7  H    2.196957   1.067207   3.594223   3.331541   4.324390
     8  H    1.042043   2.209648   3.316770   2.110468   2.549273
     9  S    2.603346   1.744092   1.769652   2.586773   3.612920
                    6          7          8          9
     6  H    0.000000
     7  H    4.626581   0.000000
     8  H    4.302070   2.634573   0.000000
     9  S    2.536938   2.537612   3.607386   0.000000
 Stoichiometry    C4H4S
 Framework group  C1[X(C4H4S)]
 Deg. of freedom    21
 Full point group                 C1      NOp   1
 RotChk:  IX=0 Diff= 2.31D-02
 Largest Abelian subgroup         C1      NOp   1
 Largest concise Abelian subgroup C1      NOp   1
                         Standard orientation:                         
 ---------------------------------------------------------------------
 Center     Atomic      Atomic             Coordinates (Angstroms)
 Number     Number       Type             X           Y           Z
 ---------------------------------------------------------------------
      1          6           0        1.292820   -0.707206   -0.020583
      2          6           0       -0.019699   -1.265481    0.063057
      3          6           0        0.016445    1.276495    0.023128
      4          6           0        1.287383    0.670456    0.010372
      5          1           0        2.155912    1.312575   -0.066571
      6          1           0       -0.212880    2.320635    0.226539
      7          1           0       -0.194031   -2.305907    0.224466
      8          1           0        2.173236   -1.232812   -0.206215
      9         16           0       -1.211496    0.003745   -0.039629
 ---------------------------------------------------------------------
 Rotational constants (GHZ):      7.8382210      5.2376517      3.1496471
 Leave Link  202 at Thu Apr  7 11:09:05 2016, MaxMem=    33554432 cpu:         0.0
 (Enter /home/dustin/Applications/g09/g09/l301.exe)

 Semi-emprical parameters in input format:
 Method=8 CoreType=1 PeptideFC=0.0103857720 RIJScale=0.5302093464
 ****
 H       
 PQN=1 NValence=1 F0ss=0.4518337300 ZetaOverlap=1.1180949616 U=-0.4334099062
 Beta=-0.2537098143 CoreKO=0.9005820729 KON=0,0,0,0.8387639208 KON=1,0,1,1.0061236865
 KON=0,1,1,0.9519998753 KON=2,1,1,0.8909335325 EISol=-0.4188110042 EHeat=0.0830298228
 Alpha=1.5310164411
 GCore=0.0091608161,1.3174322352,2.2970538991
 GCore=0.0004020760,1.4478402069,2.9969436701
 GCore=-0.0013665736,0.5364148598,3.9422854262
 ****
 C       
 PQN=2,2 NValence=4 F0ss=0.4519001705 F0sp=0.4285551882 F0pp=0.3768030831 F2pp=0.1887904774
 G1sp=0.2707101669
 ZetaOverlap=1.6713441132,1.6619479320
 U=-1.6695266360,-1.5233063179
 Beta=-0.5354368758,-0.2699809230 DDN=0,1,0.8755904971 DDN=1,1,0.8085862298
 CoreKO=0.9787444290 KON=0,0,0,0.7703920736 KON=1,0,1,0.8219701441 KON=0,1,1,1.1209152651
 KON=2,1,1,0.8063938609 EISol=-4.4398989268 EHeat=0.2723305520 Alpha=1.4050357334
 DipHyp=1.7510802472
 GCore=0.0007312717,1.1508639233,3.2245509055
 GCore=0.0030126149,1.2502003226,3.2754418495
 GCore=-0.0011285243,1.2958154043,3.2739205023
 GCore=-0.0000824483,1.3074822716,4.2942720249
 ****
 S       
 PQN=3,3 NValence=6 F0ss=0.4458649797 F0sp=0.2366228452 F0pp=0.3121966002 F2pp=0.2919809126
 G1sp=0.2791629797
 ZetaOverlap=2.5310332013,1.7221825933,0.9154880128
 U=-2.2041365964,-1.6851031955
 Beta=-0.1119258746,-0.3083200923 DDN=0,1,0.9816572121 DDN=1,1,0.9152918669
 CoreKO=1.2948564106 KON=0,0,0,1.1043994356 KON=1,0,1,0.8972667233 KON=0,1,1,1.0892901224
 KON=2,1,1,0.7261345414 EISol=-7.0460287497 EHeat=0.1058151363 Alpha=1.2451903982
 DipHyp=1.9632014730
 GCore=-0.0363835713,1.5482749247,1.3933854582
 GCore=-0.0006708644,1.6139326398,2.8276573154
 GCore=0.0007304853,3.5945697527,3.7565787057
 ****
 
 Standard basis: VSTO-6G (5D, 7F)
 Ernie: Thresh=  0.10000D-02 Tol=  0.10000D-05 Strict=F.
  NNHCO=     0 NNPyr=     0 NCTC=     0               EPep=         0.000000000
    EC=        64.568908197  ECS=         1.701403499   EG=         0.165802640
   EHC=         0.000000000  EAt=       -26.480868474  AtH=         1.527256636
 EPDDG=         0.000000000  ECC=        66.436114336 EAtT=        28.008125109
 There are    24 symmetry adapted cartesian basis functions of A   symmetry.
 There are    24 symmetry adapted basis functions of A   symmetry.
    24 basis functions,   144 primitive gaussians,    24 cartesian basis functions
    13 alpha electrons       13 beta electrons
       nuclear repulsion energy        94.4442394455 Hartrees.
 IExCor=    0 DFT=F Ex=HF Corr=None ExCW=0 ScaHFX=  1.000000
 ScaDFX=  1.000000  1.000000  1.000000  1.000000 ScalE2=  1.000000  1.000000
 IRadAn=      0 IRanWt=     -1 IRanGd=            0 ICorTp=0 IEmpDi=  4
 Integral buffers will be    131072 words long.
 Regular integral format.
 Two-electron integral symmetry is turned off.
 Leave Link  301 at Thu Apr  7 11:09:05 2016, MaxMem=    33554432 cpu:         0.0
 (Enter /home/dustin/Applications/g09/g09/l302.exe)
 Do NDO integrals.
 NPDir=0 NMtPBC=     1 NCelOv=     1 NCel=       1 NClECP=     1 NCelD=      1
         NCelK=      1 NCelE2=     1 NClLst=     1 CellRange=     0.0.
 One-electron integrals computed using PRISM.
 NBasis=    24 RedAO= F EigKep=  0.00D+00  NBF=    24
 NBsUse=    24 1.00D-04 EigRej=  0.00D+00 NBFU=    24
 Leave Link  302 at Thu Apr  7 11:09:05 2016, MaxMem=    33554432 cpu:         0.0
 (Enter /home/dustin/Applications/g09/g09/l303.exe)
 DipDrv:  MaxL=1.
 Leave Link  303 at Thu Apr  7 11:09:05 2016, MaxMem=    33554432 cpu:         0.0
 (Enter /home/dustin/Applications/g09/g09/l401.exe)
 Initial guess from the checkpoint file:  "best.chk"
 B after Tr=     0.000000    0.000000    0.000000
         Rot=    0.999995    0.000180   -0.000397   -0.003163 Ang=   0.37 deg.
 Guess basis will be translated and rotated to current coordinates.
 JPrj=0 DoOrth=T DoCkMO=T.
 Leave Link  401 at Thu Apr  7 11:09:05 2016, MaxMem=    33554432 cpu:         0.0
 (Enter /home/dustin/Applications/g09/g09/l502.exe)
 Closed shell SCF:
 Using DIIS extrapolation, IDIIS=  1040.
 Overlap will be assumed to be unity.
 Two-electron integral symmetry not used.
 Keep J ints in memory in canonical form, NReq=888082.
 IVT=       79475 IEndB=       79475 NGot=    33554432 MDV=    33473473
 LenX=    33473473 LenY=    33472456
 Requested convergence on RMS density matrix=1.00D-08 within 128 cycles.
 Requested convergence on MAX density matrix=1.00D-06.
 Requested convergence on             energy=1.00D-06.
 No special actions if energy rises.
 FoFCou: FMM=F IPFlag=           0 FMFlag=           0 FMFlg1=           0
         NFxFlg=           0 DoJE=F BraDBF=F KetDBF=F FulRan=T
         wScrn=  0.000000 ICntrl=     600 IOpCl=  2 I1Cent=           0 NGrid=           0
         NMat0=    1 NMatS0=     54 NMatT0=    0 NMatD0=    1 NMtDS0=    0 NMtDT0=    0
 Symmetry not used in FoFCou.

 Cycle   1  Pass 1  IDiag  1:
 E=-0.227809713384403    
 DIIS: error= 7.65D-03 at cycle   1 NSaved=   1.
 NSaved= 1 IEnMin= 1 EnMin=-0.227809713384403     IErMin= 1 ErrMin= 7.65D-03
 ErrMax= 7.65D-03  0.00D+00 EMaxC= 1.00D-01 BMatC= 2.06D-03 BMatP= 2.06D-03
 IDIUse=3 WtCom= 9.23D-01 WtEn= 7.65D-02
 Coeff-Com:  0.100D+01
 Coeff-En:   0.100D+01
 Coeff:      0.100D+01
 GapD=    2.000 DampG=2.000 DampE=1.000 DampFc=2.0000 IDamp=-1.
 RMSDP=3.50D-03 MaxDP=1.84D-02              OVMax= 0.00D+00

 Cycle   2  Pass 1  IDiag  3:
 E=-0.234727199268519     Delta-E=       -0.006917485884 Rises=F Damp=F
 DIIS: error= 2.40D-03 at cycle   2 NSaved=   2.
 NSaved= 2 IEnMin= 2 EnMin=-0.234727199268519     IErMin= 2 ErrMin= 2.40D-03
 ErrMax= 2.40D-03  0.00D+00 EMaxC= 1.00D-01 BMatC= 2.78D-04 BMatP= 2.06D-03
 IDIUse=3 WtCom= 9.76D-01 WtEn= 2.40D-02
 Coeff-Com: -0.489D+00 0.149D+01
 Coeff-En:   0.000D+00 0.100D+01
 Coeff:     -0.478D+00 0.148D+01
 Gap=     0.328 Goal=   None    Shift=    0.000
 RMSDP=2.45D-03 MaxDP=1.65D-02 DE=-6.92D-03 OVMax= 2.00D-02

 Cycle   3  Pass 1  IDiag  3:
 E=-0.236310813128313     Delta-E=       -0.001583613860 Rises=F Damp=F
 DIIS: error= 1.02D-03 at cycle   3 NSaved=   3.
 NSaved= 3 IEnMin= 3 EnMin=-0.236310813128313     IErMin= 3 ErrMin= 1.02D-03
 ErrMax= 1.02D-03  0.00D+00 EMaxC= 1.00D-01 BMatC= 1.77D-05 BMatP= 2.78D-04
 IDIUse=3 WtCom= 9.90D-01 WtEn= 1.02D-02
 Coeff-Com:  0.315D+00-0.108D+01 0.176D+01
 Coeff-En:   0.000D+00 0.000D+00 0.100D+01
 Coeff:      0.312D+00-0.106D+01 0.175D+01
 Gap=     0.330 Goal=   None    Shift=    0.000
 RMSDP=1.13D-03 MaxDP=9.38D-03 DE=-1.58D-03 OVMax= 1.19D-02

 Cycle   4  Pass 1  IDiag  3:
 E=-0.236507563579480     Delta-E=       -0.000196750451 Rises=F Damp=F
 DIIS: error= 2.88D-04 at cycle   4 NSaved=   4.
 NSaved= 4 IEnMin= 4 EnMin=-0.236507563579480     IErMin= 4 ErrMin= 2.88D-04
 ErrMax= 2.88D-04  0.00D+00 EMaxC= 1.00D-01 BMatC= 1.42D-06 BMatP= 1.77D-05
 IDIUse=3 WtCom= 9.97D-01 WtEn= 2.88D-03
 Coeff-Com: -0.993D-01 0.355D+00-0.818D+00 0.156D+01
 Coeff-En:   0.000D+00 0.000D+00 0.000D+00 0.100D+01
 Coeff:     -0.990D-01 0.354D+00-0.816D+00 0.156D+01
 Gap=     0.331 Goal=   None    Shift=    0.000
 RMSDP=3.72D-04 MaxDP=3.13D-03 DE=-1.97D-04 OVMax= 4.29D-03

 Cycle   5  Pass 1  IDiag  3:
 E=-0.236524501224551     Delta-E=       -0.000016937645 Rises=F Damp=F
 DIIS: error= 5.09D-05 at cycle   5 NSaved=   5.
 NSaved= 5 IEnMin= 5 EnMin=-0.236524501224551     IErMin= 5 ErrMin= 5.09D-05
 ErrMax= 5.09D-05  0.00D+00 EMaxC= 1.00D-01 BMatC= 8.81D-08 BMatP= 1.42D-06
 IDIUse=1 WtCom= 1.00D+00 WtEn= 0.00D+00
 Coeff-Com:  0.661D-02-0.274D-01 0.117D+00-0.461D+00 0.137D+01
 Coeff:      0.661D-02-0.274D-01 0.117D+00-0.461D+00 0.137D+01
 Gap=     0.331 Goal=   None    Shift=    0.000
 RMSDP=7.57D-05 MaxDP=5.55D-04 DE=-1.69D-05 OVMax= 8.29D-04

 Cycle   6  Pass 1  IDiag  3:
 E=-0.236525370734938     Delta-E=       -0.000000869510 Rises=F Damp=F
 DIIS: error= 1.33D-05 at cycle   6 NSaved=   6.
 NSaved= 6 IEnMin= 6 EnMin=-0.236525370734938     IErMin= 6 ErrMin= 1.33D-05
 ErrMax= 1.33D-05  0.00D+00 EMaxC= 1.00D-01 BMatC= 8.59D-09 BMatP= 8.81D-08
 IDIUse=1 WtCom= 1.00D+00 WtEn= 0.00D+00
 Coeff-Com:  0.707D-02-0.244D-01 0.363D-01 0.206D-01-0.530D+00 0.149D+01
 Coeff:      0.707D-02-0.244D-01 0.363D-01 0.206D-01-0.530D+00 0.149D+01
 Gap=     0.331 Goal=   None    Shift=    0.000
 RMSDP=2.41D-05 MaxDP=1.51D-04 DE=-8.70D-07 OVMax= 2.34D-04

 Cycle   7  Pass 1  IDiag  3:
 E=-0.236525448307418     Delta-E=       -0.000000077572 Rises=F Damp=F
 DIIS: error= 2.13D-06 at cycle   7 NSaved=   7.
 NSaved= 7 IEnMin= 7 EnMin=-0.236525448307418     IErMin= 7 ErrMin= 2.13D-06
 ErrMax= 2.13D-06  0.00D+00 EMaxC= 1.00D-01 BMatC= 3.45D-10 BMatP= 8.59D-09
 IDIUse=1 WtCom= 1.00D+00 WtEn= 0.00D+00
 Coeff-Com: -0.285D-02 0.997D-02-0.176D-01 0.968D-02 0.153D+00-0.598D+00
 Coeff-Com:  0.145D+01
 Coeff:     -0.285D-02 0.997D-02-0.176D-01 0.968D-02 0.153D+00-0.598D+00
 Coeff:      0.145D+01
 Gap=     0.331 Goal=   None    Shift=    0.000
 RMSDP=3.92D-06 MaxDP=1.70D-05 DE=-7.76D-08 OVMax= 3.58D-05

 Cycle   8  Pass 1  IDiag  3:
 E=-0.236525451048536     Delta-E=       -0.000000002741 Rises=F Damp=F
 DIIS: error= 6.93D-07 at cycle   8 NSaved=   8.
 NSaved= 8 IEnMin= 8 EnMin=-0.236525451048536     IErMin= 8 ErrMin= 6.93D-07
 ErrMax= 6.93D-07  0.00D+00 EMaxC= 1.00D-01 BMatC= 2.28D-11 BMatP= 3.45D-10
 IDIUse=1 WtCom= 1.00D+00 WtEn= 0.00D+00
 Coeff-Com:  0.136D-02-0.476D-02 0.866D-02-0.667D-02-0.651D-01 0.280D+00
 Coeff-Com: -0.845D+00 0.163D+01
 Coeff:      0.136D-02-0.476D-02 0.866D-02-0.667D-02-0.651D-01 0.280D+00
 Coeff:     -0.845D+00 0.163D+01
 Gap=     0.331 Goal=   None    Shift=    0.000
 RMSDP=1.12D-06 MaxDP=5.77D-06 DE=-2.74D-09 OVMax= 1.22D-05

 Cycle   9  Pass 1  IDiag  3:
 E=-0.236525451248127     Delta-E=       -0.000000000200 Rises=F Damp=F
 DIIS: error= 1.51D-07 at cycle   9 NSaved=   9.
 NSaved= 9 IEnMin= 9 EnMin=-0.236525451248127     IErMin= 9 ErrMin= 1.51D-07
 ErrMax= 1.51D-07  0.00D+00 EMaxC= 1.00D-01 BMatC= 1.12D-12 BMatP= 2.28D-11
 IDIUse=1 WtCom= 1.00D+00 WtEn= 0.00D+00
 Coeff-Com: -0.531D-03 0.185D-02-0.334D-02 0.242D-02 0.269D-01-0.115D+00
 Coeff-Com:  0.359D+00-0.833D+00 0.156D+01
 Coeff:     -0.531D-03 0.185D-02-0.334D-02 0.242D-02 0.269D-01-0.115D+00
 Coeff:      0.359D+00-0.833D+00 0.156D+01
 Gap=     0.331 Goal=   None    Shift=    0.000
 RMSDP=2.48D-07 MaxDP=1.32D-06 DE=-2.00D-10 OVMax= 2.41D-06

 Cycle  10  Pass 1  IDiag  3:
 E=-0.236525451257975     Delta-E=       -0.000000000010 Rises=F Damp=F
 DIIS: error= 3.93D-08 at cycle  10 NSaved=  10.
 NSaved=10 IEnMin=10 EnMin=-0.236525451257975     IErMin=10 ErrMin= 3.93D-08
 ErrMax= 3.93D-08  0.00D+00 EMaxC= 1.00D-01 BMatC= 5.75D-14 BMatP= 1.12D-12
 IDIUse=1 WtCom= 1.00D+00 WtEn= 0.00D+00
 Coeff-Com:  0.191D-03-0.661D-03 0.118D-02-0.773D-03-0.100D-01 0.417D-01
 Coeff-Com: -0.128D+00 0.307D+00-0.708D+00 0.150D+01
 Coeff:      0.191D-03-0.661D-03 0.118D-02-0.773D-03-0.100D-01 0.417D-01
 Coeff:     -0.128D+00 0.307D+00-0.708D+00 0.150D+01
 Gap=     0.331 Goal=   None    Shift=    0.000
 RMSDP=5.56D-08 MaxDP=3.41D-07 DE=-9.85D-12 OVMax= 5.45D-07

 Cycle  11  Pass 1  IDiag  3:
 E=-0.236525451258572     Delta-E=       -0.000000000001 Rises=F Damp=F
 DIIS: error= 1.10D-08 at cycle  11 NSaved=  11.
 NSaved=11 IEnMin=11 EnMin=-0.236525451258572     IErMin=11 ErrMin= 1.10D-08
 ErrMax= 1.10D-08  0.00D+00 EMaxC= 1.00D-01 BMatC= 5.78D-15 BMatP= 5.75D-14
 IDIUse=1 WtCom= 1.00D+00 WtEn= 0.00D+00
 Coeff-Com: -0.332D-04 0.113D-03-0.192D-03 0.696D-04 0.206D-02-0.794D-02
 Coeff-Com:  0.230D-01-0.554D-01 0.155D+00-0.601D+00 0.148D+01
 Coeff:     -0.332D-04 0.113D-03-0.192D-03 0.696D-04 0.206D-02-0.794D-02
 Coeff:      0.230D-01-0.554D-01 0.155D+00-0.601D+00 0.148D+01
 Gap=     0.331 Goal=   None    Shift=    0.000
 RMSDP=1.96D-08 MaxDP=1.21D-07 DE=-5.97D-13 OVMax= 2.08D-07

 Cycle  12  Pass 1  IDiag  3:
 E=-0.236525451258487     Delta-E=        0.000000000000 Rises=F Damp=F
 DIIS: error= 3.74D-09 at cycle  12 NSaved=  12.
 NSaved=12 IEnMin=11 EnMin=-0.236525451258572     IErMin=12 ErrMin= 3.74D-09
 ErrMax= 3.74D-09  0.00D+00 EMaxC= 1.00D-01 BMatC= 6.11D-16 BMatP= 5.78D-15
 IDIUse=1 WtCom= 1.00D+00 WtEn= 0.00D+00
 Coeff-Com:  0.102D-05-0.249D-05-0.118D-05 0.299D-04-0.200D-03 0.497D-03
 Coeff-Com: -0.689D-03 0.147D-02-0.141D-01 0.148D+00-0.705D+00 0.157D+01
 Coeff:      0.102D-05-0.249D-05-0.118D-05 0.299D-04-0.200D-03 0.497D-03
 Coeff:     -0.689D-03 0.147D-02-0.141D-01 0.148D+00-0.705D+00 0.157D+01
 Gap=     0.331 Goal=   None    Shift=    0.000
 RMSDP=7.01D-09 MaxDP=3.90D-08 DE= 8.53D-14 OVMax= 7.66D-08

 Cycle  13  Pass 2  IDiag  1:
 SCF Done:  E(RAM1) = -0.236525451258     A.U. after   13 cycles
            NFock= 12  Conv=0.70D-08     -V/T= 0.9844
 KE=-1.517506970324D+01 PE=-1.550307209813D+02 EE= 7.552502578776D+01
 Leave Link  502 at Thu Apr  7 11:09:05 2016, MaxMem=    33554432 cpu:         0.0
 (Enter /home/dustin/Applications/g09/g09/l701.exe)
 Compute integral first derivatives.
 ... and contract with generalized density number  0.
 Leave Link  701 at Thu Apr  7 11:09:05 2016, MaxMem=    33554432 cpu:         0.0
 (Enter /home/dustin/Applications/g09/g09/l702.exe)
 L702 exits ... SP integral derivatives will be done elsewhere.
 Leave Link  702 at Thu Apr  7 11:09:05 2016, MaxMem=    33554432 cpu:         0.0
 (Enter /home/dustin/Applications/g09/g09/l703.exe)
 Compute integral first derivatives, UseDBF=F ICtDFT=           0.
 Integral derivatives from FoFJK, PRISM(SPDF).
 Calling FoFJK, ICntrl=      2127 FMM=F ISym2X=0 I1Cent= 0 IOpClX= 0 NMat=1 NMatS=1 NMatT=0.
 FoFJK:  IHMeth= 8 ICntrl=    2127 DoSepK=F KAlg= 0 I1Cent=   0 FoldK=F
 IRaf=         0 NMat=   1 IRICut=       1 DoRegI=T DoRafI=F ISym2E= 0.
 FoFCou: FMM=F IPFlag=           0 FMFlag=      100000 FMFlg1=         800
         NFxFlg=           0 DoJE=F BraDBF=F KetDBF=F FulRan=T
         wScrn=  0.000000 ICntrl=    2127 IOpCl=  0 I1Cent=           0 NGrid=           0
         NMat0=    1 NMatS0=      1 NMatT0=    0 NMatD0=    1 NMtDS0=    0 NMtDT0=    0
 Symmetry not used in FoFCou.
 Leave Link  703 at Thu Apr  7 11:09:05 2016, MaxMem=    33554432 cpu:         0.0
 (Enter /home/dustin/Applications/g09/g09/l716.exe)
 Dipole        = 2.83658850D-01 3.71101003D-02 3.79392036D-02
 ***** Axes restored to original set *****
 -------------------------------------------------------------------
 Center     Atomic                   Forces (Hartrees/Bohr)
 Number     Number              X              Y              Z
 -------------------------------------------------------------------
      1        6          -0.084893395   -0.047537887   -0.003942487
      2        6           0.084427800    0.015204451    0.003173565
      3        6           0.046596632   -0.013642731    0.019338846
      4        6          -0.041874365    0.082930931   -0.012868024
      5        1           0.008791805   -0.001653399    0.004980729
      6        1          -0.002231536   -0.014628294   -0.012096932
      7        1          -0.011455594   -0.000587589   -0.006278062
      8        1           0.029934098   -0.026087388    0.003635174
      9       16          -0.029295444    0.006001907    0.004057191
 -------------------------------------------------------------------
 Cartesian Forces:  Max     0.084893395 RMS     0.034167986
 Leave Link  716 at Thu Apr  7 11:09:05 2016, MaxMem=    33554432 cpu:         0.0
 (Enter /home/dustin/Applications/g09/g09/l103.exe)

 GradGradGradGradGradGradGradGradGradGradGradGradGradGradGradGradGradGrad
 Berny optimization.
 Search for a saddle point.
 Step number   2 out of a maximum of   37
 All quantities printed in internal units (Hartrees-Bohrs-Radians)
 Swapping is turned off.
 Update second derivatives using D2CorN and points    1    2
 ITU=  0  0
     Eigenvalues ---    0.00448   0.02028   0.02345   0.02776   0.04789
     Eigenvalues ---    0.05374   0.08576   0.12205   0.13198   0.14444
     Eigenvalues ---    0.25028   0.32188   0.34713   0.39804   0.63103
     Eigenvalues ---    0.65099   0.79078   1.06964   1.10796   1.15046
     Eigenvalues ---    1.86236
 Eigenvectors required to have negative eigenvalues:
                          Z8        Z7        Z5        Z4        Z6
   1                    0.80426  -0.32096  -0.31936  -0.18516   0.17481
                          Z9        Z2        Y8        X8        Y5
   1                    0.16595  -0.14786   0.11901   0.07020  -0.05686
 Eigenvalue     1 is   4.48D-03 should be less than     0.000000 Eigenvector:
                          Z8        Z7        Z5        Z4        Z6
   1                    0.80426  -0.32096  -0.31936  -0.18516   0.17481
                          Z9        Z2        Y8        X8        Y5
   1                    0.16595  -0.14786   0.11901   0.07020  -0.05686
 RFO step:  Lambda0=1.639329891D-02 Lambda=-3.87470436D-02.
 Linear search not attempted -- option 19 set.
 Maximum step size (   0.300) exceeded in Quadratic search.
    -- Step size scaled by   0.247
 TrRot=  0.002736  0.000953  0.004013 -0.191355 -0.004595  0.192131
 Variable       Old X    -DE/DX   Delta X   Delta X   Delta X     New X
                                 (Linear)    (Quad)   (Total)
    X1        1.66937  -0.08489   0.00000  -0.00320   0.00023   1.66960
    Y1       -1.30278  -0.04754   0.00000  -0.00043   0.00188  -1.30090
    Z1        0.05837  -0.00394   0.00000   0.00730   0.01997   0.07834
    X2       -0.83210   0.08443   0.00000   0.02472   0.02877  -0.80333
    Y2       -2.31887   0.01520   0.00000   0.00435   0.00477  -2.31410
    Z2        0.06486   0.00317   0.00000   0.04248   0.04488   0.10975
    X3       -0.68446   0.04660   0.00000   0.00982   0.01056  -0.67391
    Y3        2.48335  -0.01364   0.00000  -0.00625  -0.00581   2.47754
    Z3        0.01808   0.01934   0.00000   0.00238   0.00118   0.01925
    X4        1.69633  -0.04187   0.00000  -0.00339  -0.00249   1.69384
    Y4        1.30019   0.08293   0.00000   0.02027   0.02269   1.32289
    Z4        0.12945  -0.01287   0.00000   0.04643   0.05692   0.18636
    X5        3.36208   0.00879   0.00000   0.01177   0.01160   3.37368
    Y5        2.48798  -0.00165   0.00000   0.00683   0.01059   2.49857
    Z5        0.08704   0.00498   0.00000   0.12009   0.13713   0.22417
    X6       -1.10885  -0.00223   0.00000  -0.02284  -0.02491  -1.13375
    Y6        4.46150  -0.01463   0.00000  -0.00278  -0.00245   4.45905
    Z6        0.38638  -0.01210   0.00000  -0.08485  -0.08986   0.29652
    X7       -1.20960  -0.01146   0.00000  -0.01450  -0.01033  -1.21993
    Y7       -4.28077  -0.00059   0.00000   0.01393   0.01430  -4.26647
    Z7        0.33993  -0.00628   0.00000   0.07885   0.08108   0.42101
    X8        3.33518   0.02993   0.00000  -0.01939  -0.01292   3.32226
    Y8       -2.32087  -0.02609   0.00000  -0.04308  -0.03992  -2.36079
    Z8       -0.19901   0.00364   0.00000  -0.22897  -0.20792  -0.40694
    X9       -3.03120  -0.02930   0.00000  -0.00447  -0.00051  -3.03171
    Y9        0.11589   0.00600   0.00000  -0.00440  -0.00606   0.10984
    Z9       -0.24909   0.00406   0.00000  -0.03359  -0.04337  -0.29245
         Item               Value     Threshold  Converged?
 Maximum Force            0.084893     0.000450     NO 
 RMS     Force            0.034168     0.000300     NO 
 Maximum Displacement     0.207921     0.001800     NO 
 RMS     Displacement     0.057323     0.001200     NO 
 Predicted change in Energy=-4.231439D-03
 Optimization stopped.
    -- Wrong number of Negative eigenvalues: Desired=  1 Actual=  0
    -- Flag reset to prevent archiving.
 Lowest energy point so far.  Saving SCF results.
 GradGradGradGradGradGradGradGradGradGradGradGradGradGradGradGradGradGrad

 Largest change from initial coordinates is atom    8       0.014 Angstoms.
 Leave Link  103 at Thu Apr  7 11:09:06 2016, MaxMem=    33554432 cpu:         0.0
 (Enter /home/dustin/Applications/g09/g09/l202.exe)
                          Input orientation:                          
 ---------------------------------------------------------------------
 Center     Atomic      Atomic             Coordinates (Angstroms)
 Number     Number       Type             X           Y           Z
 ---------------------------------------------------------------------
      1          6           0        0.883395   -0.689401    0.030888
      2          6           0       -0.440330   -1.227094    0.034324
      3          6           0       -0.362203    1.314131    0.009566
      4          6           0        0.897660    0.688032    0.068501
      5          1           0        1.779134    1.316584    0.046060
      6          1           0       -0.586777    2.360925    0.204463
      7          1           0       -0.640092   -2.265284    0.179886
      8          1           0        1.764901   -1.228151   -0.105314
      9         16           0       -1.604042    0.061327   -0.131810
 ---------------------------------------------------------------------
                    Distance matrix (angstroms):
                    1          2          3          4          5
     1  C    0.000000
     2  C    1.428766   0.000000
     3  C    2.359261   2.542546   0.000000
     4  C    1.378021   2.336470   1.408093   0.000000
     5  H    2.196943   3.375864   2.141650   1.082857   0.000000
     6  H    3.390578   3.595034   1.088207   2.240671   2.590998
     7  H    2.196957   1.067207   3.594223   3.331541   4.324390
     8  H    1.042043   2.209648   3.316770   2.110468   2.549273
     9  S    2.603346   1.744092   1.769652   2.586773   3.612920
                    6          7          8          9
     6  H    0.000000
     7  H    4.626581   0.000000
     8  H    4.302070   2.634573   0.000000
     9  S    2.536938   2.537612   3.607386   0.000000
 Stoichiometry    C4H4S
 Framework group  C1[X(C4H4S)]
 Deg. of freedom    21
 Full point group                 C1      NOp   1
 RotChk:  IX=0 Diff= 3.70D-16
 Largest Abelian subgroup         C1      NOp   1
 Largest concise Abelian subgroup C1      NOp   1
                         Standard orientation:                         
 ---------------------------------------------------------------------
 Center     Atomic      Atomic             Coordinates (Angstroms)
 Number     Number       Type             X           Y           Z
 ---------------------------------------------------------------------
      1          6           0        1.292820   -0.707206   -0.020583
      2          6           0       -0.019699   -1.265481    0.063057
      3          6           0        0.016445    1.276495    0.023128
      4          6           0        1.287383    0.670456    0.010372
      5          1           0        2.155912    1.312575   -0.066571
      6          1           0       -0.212880    2.320635    0.226539
      7          1           0       -0.194031   -2.305907    0.224466
      8          1           0        2.173236   -1.232812   -0.206215
      9         16           0       -1.211496    0.003745   -0.039629
 ---------------------------------------------------------------------
 Rotational constants (GHZ):      7.8382210      5.2376517      3.1496471
 Leave Link  202 at Thu Apr  7 11:09:06 2016, MaxMem=    33554432 cpu:         0.0
 (Enter /home/dustin/Applications/g09/g09/l601.exe)
 Copying SCF densities to generalized density rwf, IOpCl= 0 IROHF=0.

 **********************************************************************

            Population analysis using the SCF density.

 **********************************************************************

 Orbital symmetries:
       Occupied  (A) (A) (A) (A) (A) (A) (A) (A) (A) (A) (A) (A)
                 (A)
       Virtual   (A) (A) (A) (A) (A) (A) (A) (A) (A) (A) (A)
 The electronic state is 1-A.
 Alpha  occ. eigenvalues --   -1.33190  -1.11600  -0.99961  -0.83108  -0.74872
 Alpha  occ. eigenvalues --   -0.74671  -0.62199  -0.60287  -0.58424  -0.57215
 Alpha  occ. eigenvalues --   -0.54783  -0.45187  -0.42290
 Alpha virt. eigenvalues --   -0.09196  -0.03937  -0.03632   0.01726   0.06225
 Alpha virt. eigenvalues --    0.09275   0.12491   0.19849   0.23641   0.28507
 Alpha virt. eigenvalues --    0.35273
          Condensed to atoms (all electrons):
               1          2          3          4          5          6
     1  C    4.153499   0.000000   0.000000   0.000000   0.000000   0.000000
     2  C    0.000000   3.715993   0.000000   0.000000   0.000000   0.000000
     3  C    0.000000   0.000000   3.731118   0.000000   0.000000   0.000000
     4  C    0.000000   0.000000   0.000000   4.156414   0.000000   0.000000
     5  H    0.000000   0.000000   0.000000   0.000000   0.952412   0.000000
     6  H    0.000000   0.000000   0.000000   0.000000   0.000000   0.992669
     7  H    0.000000   0.000000   0.000000   0.000000   0.000000   0.000000
     8  H    0.000000   0.000000   0.000000   0.000000   0.000000   0.000000
     9  S    0.000000   0.000000   0.000000   0.000000   0.000000   0.000000
               7          8          9
     1  C    0.000000   0.000000   0.000000
     2  C    0.000000   0.000000   0.000000
     3  C    0.000000   0.000000   0.000000
     4  C    0.000000   0.000000   0.000000
     5  H    0.000000   0.000000   0.000000
     6  H    0.000000   0.000000   0.000000
     7  H    0.998523   0.000000   0.000000
     8  H    0.000000   0.968796   0.000000
     9  S    0.000000   0.000000   6.330577
 Mulliken charges:
               1
     1  C   -0.153499
     2  C    0.284007
     3  C    0.268882
     4  C   -0.156414
     5  H    0.047588
     6  H    0.007331
     7  H    0.001477
     8  H    0.031204
     9  S   -0.330577
 Sum of Mulliken charges =   0.00000
 Mulliken charges with hydrogens summed into heavy atoms:
               1
     1  C   -0.122295
     2  C    0.285484
     3  C    0.276213
     4  C   -0.108826
     9  S   -0.330577
 Charge=              0.0000 electrons
 Dipole moment (field-independent basis, Debye):
    X=              0.7210    Y=              0.0943    Z=              0.0964  Tot=              0.7335
 N-N= 9.444423944553D+01 E-N=-1.550307209818D+02  KE=-1.517506970324D+01
 Leave Link  601 at Thu Apr  7 11:09:06 2016, MaxMem=    33554432 cpu:         0.0
 (Enter /home/dustin/Applications/g09/g09/l9999.exe)


 ... THIS SEEMS PLAINLY ABSURD; BUT WHOEVER WISHES TO BECOME A 
 PHILOSOPHER MUST LEARN NOT TO BE FRIGHTENED BY ABSURDITIES.

                          -- BERTRAND RUSSELL
 Error termination request processed by link 9999.
 Error termination via Lnk1e in /home/dustin/Applications/g09/g09/l9999.exe at Thu Apr  7 11:09:06 2016.
 Job cpu time:       0 days  0 hours  0 minutes  0.5 seconds.
 File lengths (MBytes):  RWF=      5 Int=      0 D2E=      0 Chk=      2 Scr=      1
