 Entering Gaussian System, Link 0=g09
 Input=best.com
 Output=best.log
 Initial command:
 /home/dustin/Applications/g09/g09/l1.exe "/tmp/Gau-6273.inp" -scrdir="/tmp/"
 Entering Link 1 = /home/dustin/Applications/g09/g09/l1.exe PID=      6275.
  
 Copyright (c) 1988,1990,1992,1993,1995,1998,2003,2009,2013,
            Gaussian, Inc.  All Rights Reserved.
  
 This is part of the Gaussian(R) 09 program.  It is based on
 the Gaussian(R) 03 system (copyright 2003, Gaussian, Inc.),
 the Gaussian(R) 98 system (copyright 1998, Gaussian, Inc.),
 the Gaussian(R) 94 system (copyright 1995, Gaussian, Inc.),
 the Gaussian 92(TM) system (copyright 1992, Gaussian, Inc.),
 the Gaussian 90(TM) system (copyright 1990, Gaussian, Inc.),
 the Gaussian 88(TM) system (copyright 1988, Gaussian, Inc.),
 the Gaussian 86(TM) system (copyright 1986, Carnegie Mellon
 University), and the Gaussian 82(TM) system (copyright 1983,
 Carnegie Mellon University). Gaussian is a federally registered
 trademark of Gaussian, Inc.
  
 This software contains proprietary and confidential information,
 including trade secrets, belonging to Gaussian, Inc.
  
 This software is provided under written license and may be
 used, copied, transmitted, or stored only in accord with that
 written license.
  
 The following legend is applicable only to US Government
 contracts under FAR:
  
                    RESTRICTED RIGHTS LEGEND
  
 Use, reproduction and disclosure by the US Government is
 subject to restrictions as set forth in subparagraphs (a)
 and (c) of the Commercial Computer Software - Restricted
 Rights clause in FAR 52.227-19.
  
 Gaussian, Inc.
 340 Quinnipiac St., Bldg. 40, Wallingford CT 06492
  
  
 ---------------------------------------------------------------
 Warning -- This program may not be used in any manner that
 competes with the business of Gaussian, Inc. or will provide
 assistance to any competitor of Gaussian, Inc.  The licensee
 of this program is prohibited from giving any competitor of
 Gaussian, Inc. access to this program.  By using this program,
 the user acknowledges that Gaussian, Inc. is engaged in the
 business of creating and licensing software in the field of
 computational chemistry and represents and warrants to the
 licensee that it is not a competitor of Gaussian, Inc. and that
 it will not use this program in any manner prohibited above.
 ---------------------------------------------------------------
  

 Cite this work as:
 Gaussian 09, Revision D.01,
 M. J. Frisch, G. W. Trucks, H. B. Schlegel, G. E. Scuseria, 
 M. A. Robb, J. R. Cheeseman, G. Scalmani, V. Barone, B. Mennucci, 
 G. A. Petersson, H. Nakatsuji, M. Caricato, X. Li, H. P. Hratchian, 
 A. F. Izmaylov, J. Bloino, G. Zheng, J. L. Sonnenberg, M. Hada, 
 M. Ehara, K. Toyota, R. Fukuda, J. Hasegawa, M. Ishida, T. Nakajima, 
 Y. Honda, O. Kitao, H. Nakai, T. Vreven, J. A. Montgomery, Jr., 
 J. E. Peralta, F. Ogliaro, M. Bearpark, J. J. Heyd, E. Brothers, 
 K. N. Kudin, V. N. Staroverov, T. Keith, R. Kobayashi, J. Normand, 
 K. Raghavachari, A. Rendell, J. C. Burant, S. S. Iyengar, J. Tomasi, 
 M. Cossi, N. Rega, J. M. Millam, M. Klene, J. E. Knox, J. B. Cross, 
 V. Bakken, C. Adamo, J. Jaramillo, R. Gomperts, R. E. Stratmann, 
 O. Yazyev, A. J. Austin, R. Cammi, C. Pomelli, J. W. Ochterski, 
 R. L. Martin, K. Morokuma, V. G. Zakrzewski, G. A. Voth, 
 P. Salvador, J. J. Dannenberg, S. Dapprich, A. D. Daniels, 
 O. Farkas, J. B. Foresman, J. V. Ortiz, J. Cioslowski, 
 and D. J. Fox, Gaussian, Inc., Wallingford CT, 2013.
 
 ******************************************
 Gaussian 09:  ES64L-G09RevD.01 24-Apr-2013
                10-Apr-2016 
 ******************************************
 %chk=best
 ------------------------
 #P AM1(Input,Print) freq
 ------------------------
 1/10=4,30=1,38=1/1,3;
 2/12=2,17=6,18=5,40=1/2;
 3/5=2,16=1,25=1,41=700000,71=2,135=100,136=1,140=1/1,2,3;
 4/35=1/1;
 5/5=2,35=1,38=5,98=1/2;
 8/6=4,10=90,11=11/1;
 11/6=1,8=1,9=11,15=111,16=1/1,2,10;
 10/6=1/2;
 6/7=2,8=2,9=2,10=2,18=1,28=1/1;
 7/8=1,10=1,25=1/1,2,3,16;
 1/10=4,30=1/3;
 99//99;
 Leave Link    1 at Sun Apr 10 09:58:31 2016, MaxMem=           0 cpu:         0.0
 (Enter /home/dustin/Applications/g09/g09/l101.exe)
 ----
 best
 ----
 Symbolic Z-matrix:
 Charge =  0 Multiplicity = 1
 6                     0.88688  -0.68348  -0.05446 
 6                    -0.41206  -1.20249  -0.0053 
 6                    -0.33237   1.30578   0.04274 
 6                     0.89555   0.6917    0.01535 
 1                     1.80438   1.31852  -0.03658 
 1                    -0.55343   2.35163   0.23933 
 1                    -0.686    -2.31002   0.10793 
 1                     1.77111  -1.24673  -0.16015 
 16                   -1.57648  -0.00341  -0.11268 
 
 NAtoms=      9 NQM=        9 NQMF=       0 NMMI=      0 NMMIF=      0
                NMic=       0 NMicF=      0.
                    Isotopes and Nuclear Properties:
 (Nuclear quadrupole moments (NQMom) in fm**2, nuclear magnetic moments (NMagM)
  in nuclear magnetons)

  Atom         1           2           3           4           5           6           7           8           9
 IAtWgt=          12          12          12          12           1           1           1           1          32
 AtmWgt=  12.0000000  12.0000000  12.0000000  12.0000000   1.0078250   1.0078250   1.0078250   1.0078250  31.9720718
 NucSpn=           0           0           0           0           1           1           1           1           0
 AtZEff=   0.0000000   0.0000000   0.0000000   0.0000000   0.0000000   0.0000000   0.0000000   0.0000000   0.0000000
 NQMom=    0.0000000   0.0000000   0.0000000   0.0000000   0.0000000   0.0000000   0.0000000   0.0000000   0.0000000
 NMagM=    0.0000000   0.0000000   0.0000000   0.0000000   2.7928460   2.7928460   2.7928460   2.7928460   0.0000000
 AtZNuc=   6.0000000   6.0000000   6.0000000   6.0000000   1.0000000   1.0000000   1.0000000   1.0000000  16.0000000
 Leave Link  101 at Sun Apr 10 09:58:31 2016, MaxMem=    33554432 cpu:         0.0
 (Enter /home/dustin/Applications/g09/g09/l103.exe)

 GradGradGradGradGradGradGradGradGradGradGradGradGradGradGradGradGradGrad
 Berny optimization.
 Initialization pass.
 Trust Radius=3.00D-01 FncErr=1.00D-07 GrdErr=1.00D-07
 Number of steps in this run=      2 maximum allowed number of steps=      2.
 GradGradGradGradGradGradGradGradGradGradGradGradGradGradGradGradGradGrad

 Leave Link  103 at Sun Apr 10 09:58:31 2016, MaxMem=    33554432 cpu:         0.0
 (Enter /home/dustin/Applications/g09/g09/l202.exe)
                          Input orientation:                          
 ---------------------------------------------------------------------
 Center     Atomic      Atomic             Coordinates (Angstroms)
 Number     Number       Type             X           Y           Z
 ---------------------------------------------------------------------
      1          6           0        0.886877   -0.683479   -0.054462
      2          6           0       -0.412061   -1.202485   -0.005295
      3          6           0       -0.332371    1.305778    0.042737
      4          6           0        0.895551    0.691700    0.015352
      5          1           0        1.804380    1.318517   -0.036575
      6          1           0       -0.553430    2.351628    0.239331
      7          1           0       -0.685998   -2.310021    0.107929
      8          1           0        1.771106   -1.246727   -0.160151
      9         16           0       -1.576482   -0.003414   -0.112682
 ---------------------------------------------------------------------
                    Distance matrix (angstroms):
                    1          2          3          4          5
     1  C    0.000000
     2  C    1.399652   0.000000
     3  C    2.335200   2.509988   0.000000
     4  C    1.376977   2.301785   1.373184   0.000000
     5  H    2.202299   3.356939   2.138260   1.105245   0.000000
     6  H    3.372339   3.565326   1.086885   2.214740   2.588959
     7  H    2.268468   1.146515   3.633635   3.394142   4.403311
     8  H    1.053698   2.189099   3.313768   2.134220   2.568434
     9  S    2.556172   1.674867   1.812719   2.571094   3.630912
                    6          7          8          9
     6  H    0.000000
     7  H    4.665384   0.000000
     8  H    4.302466   2.690692   0.000000
     9  S    2.591673   2.482351   3.571334   0.000000
 Stoichiometry    C4H4S
 Framework group  C1[X(C4H4S)]
 Deg. of freedom    21
 Full point group                 C1      NOp   1
 Largest Abelian subgroup         C1      NOp   1
 Largest concise Abelian subgroup C1      NOp   1
                         Standard orientation:                         
 ---------------------------------------------------------------------
 Center     Atomic      Atomic             Coordinates (Angstroms)
 Number     Number       Type             X           Y           Z
 ---------------------------------------------------------------------
      1          6           0       -1.190413    0.820906   -0.029048
      2          6           0        0.150904    1.208585    0.068922
      3          6           0       -0.173732   -1.280171    0.041614
      4          6           0       -1.334808   -0.548164    0.000336
      5          1           0       -2.298435   -1.081267   -0.093423
      6          1           0       -0.061178   -2.347499    0.213254
      7          1           0        0.527915    2.280536    0.221502
      8          1           0       -2.012267    1.470729   -0.141142
      9         16           0        1.195766   -0.095590   -0.043196
 ---------------------------------------------------------------------
 Rotational constants (GHZ):      7.9492710      5.3450716      3.2069006
 Leave Link  202 at Sun Apr 10 09:58:31 2016, MaxMem=    33554432 cpu:         0.0
 (Enter /home/dustin/Applications/g09/g09/l301.exe)

 Semi-emprical parameters in input format:
 Method=8 CoreType=1 PeptideFC=0.0121077625 RIJScale=0.5148421843
 ****
 H       
 PQN=1 NValence=1 F0ss=0.3861905212 ZetaOverlap=1.2496120360 U=-0.4188110042
 Beta=-0.2369859586 CoreKO=1.0579003764 KON=0,0,0,1.0589197790 KON=1,0,1,1.0497731350
 KON=0,1,1,1.0019787936 KON=2,1,1,1.0303754612 EISol=-0.4188110042 EHeat=0.0830298228
 Alpha=1.5411457947
 GCore=0.0082680393,1.3799011174,2.2676713595
 GCore=0.0003656320,1.3109146540,3.3684245479
 GCore=-0.0012900288,0.5906486780,3.9242493919
 ****
 C       
 PQN=2,2 NValence=4 F0ss=0.5341278571 F0sp=0.3848580628 F0pp=0.4186252881 F2pp=0.1960977238
 G1sp=0.2549607877
 ZetaOverlap=1.7888907992,1.5900900460
 U=-1.9120180828,-1.5193343571
 Beta=-0.6167809829,-0.2849048578 DDN=0,1,0.8102100380 DDN=1,1,0.6820171242
 CoreKO=1.0304091322 KON=0,0,0,1.0906754025 KON=1,0,1,0.8098642350 KON=0,1,1,1.0295078685
 KON=2,1,1,0.7580621091 EISol=-4.4398989268 EHeat=0.2723305520 Alpha=1.3929601747
 DipHyp=1.6203268518
 GCore=0.0007908418,1.3753946001,2.8862491072
 GCore=0.0040442674,1.4337860813,3.1243303050
 GCore=-0.0011809165,1.2972620337,3.8739385724
 GCore=-0.0000896351,1.4220637298,4.9827618837
 ****
 S       
 PQN=3,3 NValence=6 F0ss=0.4231238846 F0sp=0.3183640731 F0pp=0.3136271218 F2pp=0.3513050233
 G1sp=0.2461258931
 ZetaOverlap=2.1664799235,1.4222069465,0.9376044970
 U=-2.0834683120,-1.8359407715
 Beta=-0.1301172936,-0.2928210956 DDN=0,1,0.9004265000 DDN=1,1,1.0069068502
 CoreKO=1.1087944437 KON=0,0,0,1.1203815822 KON=1,0,1,0.7811934487 KON=0,1,1,1.0648909719
 KON=2,1,1,0.8270286475 EISol=-7.0460287497 EHeat=0.1058151363 Alpha=1.3026480172
 DipHyp=1.8007493954
 GCore=-0.0361455890,1.2555382754,1.6063090732
 GCore=-0.0006608381,1.6425719595,3.3504655668
 GCore=0.0008177898,3.6591110164,3.7967867236
 ****
 
 Standard basis: VSTO-6G (5D, 7F)
 Ernie: Thresh=  0.10000D-02 Tol=  0.10000D-05 Strict=F.
  NNHCO=     0 NNPyr=     0 NCTC=     0               EPep=         0.000000000
    EC=        64.408836495  ECS=         1.678275130   EG=         0.200876695
   EHC=         0.000000000  EAt=       -26.480868474  AtH=         1.527256636
 EPDDG=         0.000000000  ECC=        66.287988320 EAtT=        28.008125109
 There are    24 symmetry adapted cartesian basis functions of A   symmetry.
 There are    24 symmetry adapted basis functions of A   symmetry.
    24 basis functions,   144 primitive gaussians,    24 cartesian basis functions
    13 alpha electrons       13 beta electrons
       nuclear repulsion energy        94.2961134294 Hartrees.



 Warning!  S  atom    9 may be hypervalent but has no d functions.



 IExCor=    0 DFT=F Ex=HF Corr=None ExCW=0 ScaHFX=  1.000000
 ScaDFX=  1.000000  1.000000  1.000000  1.000000 ScalE2=  1.000000  1.000000
 IRadAn=      0 IRanWt=     -1 IRanGd=            0 ICorTp=0 IEmpDi=  4
 Integral buffers will be    131072 words long.
 Regular integral format.
 Two-electron integral symmetry is turned off.
 Leave Link  301 at Sun Apr 10 09:58:31 2016, MaxMem=    33554432 cpu:         0.0
 (Enter /home/dustin/Applications/g09/g09/l302.exe)
 Do NDO integrals.
 NPDir=0 NMtPBC=     1 NCelOv=     1 NCel=       1 NClECP=     1 NCelD=      1
         NCelK=      1 NCelE2=     1 NClLst=     1 CellRange=     0.0.
 One-electron integrals computed using PRISM.
 NBasis=    24 RedAO= F EigKep=  0.00D+00  NBF=    24
 NBsUse=    24 1.00D-04 EigRej=  0.00D+00 NBFU=    24
 Leave Link  302 at Sun Apr 10 09:58:31 2016, MaxMem=    33554432 cpu:         0.0
 (Enter /home/dustin/Applications/g09/g09/l303.exe)
 DipDrv:  MaxL=1.
 Leave Link  303 at Sun Apr 10 09:58:31 2016, MaxMem=    33554432 cpu:         0.0
 (Enter /home/dustin/Applications/g09/g09/l401.exe)
 Simple Huckel Guess.
 JPrj=0 DoOrth=F DoCkMO=F.
 Leave Link  401 at Sun Apr 10 09:58:31 2016, MaxMem=    33554432 cpu:         0.0
 (Enter /home/dustin/Applications/g09/g09/l502.exe)
 Closed shell SCF:
 Using DIIS extrapolation, IDIIS=  1040.
 Overlap will be assumed to be unity.
 Two-electron integral symmetry not used.
 Keep J ints in memory in canonical form, NReq=888082.
 IVT=       79475 IEndB=       79475 NGot=    33554432 MDV=    33473473
 LenX=    33473473 LenY=    33472456
 Requested convergence on RMS density matrix=1.00D-08 within 128 cycles.
 Requested convergence on MAX density matrix=1.00D-06.
 Requested convergence on             energy=1.00D-06.
 No special actions if energy rises.
 FoFCou: FMM=F IPFlag=           0 FMFlag=           0 FMFlg1=           0
         NFxFlg=           0 DoJE=F BraDBF=F KetDBF=F FulRan=T
         wScrn=  0.000000 ICntrl=     600 IOpCl=  2 I1Cent=           0 NGrid=           0
         NMat0=    1 NMatS0=     54 NMatT0=    0 NMatD0=    1 NMtDS0=    0 NMtDT0=    0
 Symmetry not used in FoFCou.

 Cycle   1  Pass 1  IDiag  1:
 E=-0.771920181579688    
 DIIS: error= 4.04D-02 at cycle   1 NSaved=   1.
 NSaved= 1 IEnMin= 1 EnMin=-0.771920181579688     IErMin= 1 ErrMin= 4.04D-02
 ErrMax= 4.04D-02  0.00D+00 EMaxC= 1.00D-01 BMatC= 7.48D-02 BMatP= 7.48D-02
 IDIUse=3 WtCom= 5.96D-01 WtEn= 4.04D-01
 Coeff-Com:  0.100D+01
 Coeff-En:   0.100D+01
 Coeff:      0.100D+01
 GapD=    2.000 DampG=2.000 DampE=0.500 DampFc=1.0000 IDamp=-1.
 RMSDP=1.67D-02 MaxDP=9.80D-02              OVMax= 0.00D+00

 Cycle   2  Pass 1  IDiag  1:
 E=-0.945554906870981     Delta-E=       -0.173634725291 Rises=F Damp=F
 DIIS: error= 8.79D-03 at cycle   2 NSaved=   2.
 NSaved= 2 IEnMin= 2 EnMin=-0.945554906870981     IErMin= 2 ErrMin= 8.79D-03
 ErrMax= 8.79D-03  0.00D+00 EMaxC= 1.00D-01 BMatC= 3.35D-03 BMatP= 7.48D-02
 IDIUse=3 WtCom= 9.12D-01 WtEn= 8.79D-02
 Coeff-Com: -0.227D+00 0.123D+01
 Coeff-En:   0.000D+00 0.100D+01
 Coeff:     -0.207D+00 0.121D+01
 RMSDP=5.39D-03 MaxDP=5.35D-02 DE=-1.74D-01 OVMax= 0.00D+00

 Cycle   3  Pass 1  IDiag  3:
 E=-0.956911880250161     Delta-E=       -0.011356973379 Rises=F Damp=F
 DIIS: error= 2.29D-03 at cycle   3 NSaved=   3.
 NSaved= 3 IEnMin= 3 EnMin=-0.956911880250161     IErMin= 3 ErrMin= 2.29D-03
 ErrMax= 2.29D-03  0.00D+00 EMaxC= 1.00D-01 BMatC= 1.18D-04 BMatP= 3.35D-03
 IDIUse=3 WtCom= 9.77D-01 WtEn= 2.29D-02
 Coeff-Com:  0.601D-01-0.409D+00 0.135D+01
 Coeff-En:   0.000D+00 0.000D+00 0.100D+01
 Coeff:      0.587D-01-0.400D+00 0.134D+01
 Gap=     0.353 Goal=   None    Shift=    0.000
 RMSDP=1.75D-03 MaxDP=2.23D-02 DE=-1.14D-02 OVMax= 2.41D-02

 Cycle   4  Pass 1  IDiag  3:
 E=-0.957713443954603     Delta-E=       -0.000801563704 Rises=F Damp=F
 DIIS: error= 6.38D-04 at cycle   4 NSaved=   4.
 NSaved= 4 IEnMin= 4 EnMin=-0.957713443954603     IErMin= 4 ErrMin= 6.38D-04
 ErrMax= 6.38D-04  0.00D+00 EMaxC= 1.00D-01 BMatC= 1.19D-05 BMatP= 1.18D-04
 IDIUse=3 WtCom= 9.94D-01 WtEn= 6.38D-03
 Coeff-Com: -0.563D-02 0.620D-01-0.489D+00 0.143D+01
 Coeff-En:   0.000D+00 0.000D+00 0.000D+00 0.100D+01
 Coeff:     -0.559D-02 0.616D-01-0.486D+00 0.143D+01
 Gap=     0.354 Goal=   None    Shift=    0.000
 RMSDP=6.99D-04 MaxDP=8.11D-03 DE=-8.02D-04 OVMax= 8.39D-03

 Cycle   5  Pass 1  IDiag  3:
 E=-0.957811910972680     Delta-E=       -0.000098467018 Rises=F Damp=F
 DIIS: error= 1.67D-04 at cycle   5 NSaved=   5.
 NSaved= 5 IEnMin= 5 EnMin=-0.957811910972680     IErMin= 5 ErrMin= 1.67D-04
 ErrMax= 1.67D-04  0.00D+00 EMaxC= 1.00D-01 BMatC= 1.24D-06 BMatP= 1.19D-05
 IDIUse=3 WtCom= 9.98D-01 WtEn= 1.67D-03
 Coeff-Com: -0.183D-02 0.620D-04 0.152D+00-0.762D+00 0.161D+01
 Coeff-En:   0.000D+00 0.000D+00 0.000D+00 0.000D+00 0.100D+01
 Coeff:     -0.182D-02 0.619D-04 0.151D+00-0.761D+00 0.161D+01
 Gap=     0.354 Goal=   None    Shift=    0.000
 RMSDP=2.54D-04 MaxDP=1.73D-03 DE=-9.85D-05 OVMax= 1.96D-03

 Cycle   6  Pass 1  IDiag  3:
 E=-0.957822775311570     Delta-E=       -0.000010864339 Rises=F Damp=F
 DIIS: error= 5.84D-05 at cycle   6 NSaved=   6.
 NSaved= 6 IEnMin= 6 EnMin=-0.957822775311570     IErMin= 6 ErrMin= 5.84D-05
 ErrMax= 5.84D-05  0.00D+00 EMaxC= 1.00D-01 BMatC= 8.12D-08 BMatP= 1.24D-06
 IDIUse=1 WtCom= 1.00D+00 WtEn= 0.00D+00
 Coeff-Com:  0.141D-02-0.508D-02-0.387D-01 0.276D+00-0.816D+00 0.158D+01
 Coeff:      0.141D-02-0.508D-02-0.387D-01 0.276D+00-0.816D+00 0.158D+01
 Gap=     0.354 Goal=   None    Shift=    0.000
 RMSDP=7.14D-05 MaxDP=4.96D-04 DE=-1.09D-05 OVMax= 6.14D-04

 Cycle   7  Pass 1  IDiag  3:
 E=-0.957823522252610     Delta-E=       -0.000000746941 Rises=F Damp=F
 DIIS: error= 1.24D-05 at cycle   7 NSaved=   7.
 NSaved= 7 IEnMin= 7 EnMin=-0.957823522252610     IErMin= 7 ErrMin= 1.24D-05
 ErrMax= 1.24D-05  0.00D+00 EMaxC= 1.00D-01 BMatC= 3.35D-09 BMatP= 8.12D-08
 IDIUse=1 WtCom= 1.00D+00 WtEn= 0.00D+00
 Coeff-Com: -0.482D-03 0.182D-02 0.131D-01-0.960D-01 0.296D+00-0.675D+00
 Coeff-Com:  0.146D+01
 Coeff:     -0.482D-03 0.182D-02 0.131D-01-0.960D-01 0.296D+00-0.675D+00
 Coeff:      0.146D+01
 Gap=     0.354 Goal=   None    Shift=    0.000
 RMSDP=1.32D-05 MaxDP=9.52D-05 DE=-7.47D-07 OVMax= 1.48D-04

 Cycle   8  Pass 1  IDiag  3:
 E=-0.957823552972144     Delta-E=       -0.000000030720 Rises=F Damp=F
 DIIS: error= 3.34D-06 at cycle   8 NSaved=   8.
 NSaved= 8 IEnMin= 8 EnMin=-0.957823552972144     IErMin= 8 ErrMin= 3.34D-06
 ErrMax= 3.34D-06  0.00D+00 EMaxC= 1.00D-01 BMatC= 3.83D-10 BMatP= 3.35D-09
 IDIUse=1 WtCom= 1.00D+00 WtEn= 0.00D+00
 Coeff-Com: -0.162D-04-0.102D-04 0.110D-02-0.600D-02 0.138D-01-0.116D-02
 Coeff-Com: -0.363D+00 0.136D+01
 Coeff:     -0.162D-04-0.102D-04 0.110D-02-0.600D-02 0.138D-01-0.116D-02
 Coeff:     -0.363D+00 0.136D+01
 Gap=     0.354 Goal=   None    Shift=    0.000
 RMSDP=4.64D-06 MaxDP=3.21D-05 DE=-3.07D-08 OVMax= 5.10D-05

 Cycle   9  Pass 1  IDiag  3:
 E=-0.957823556517212     Delta-E=       -0.000000003545 Rises=F Damp=F
 DIIS: error= 7.88D-07 at cycle   9 NSaved=   9.
 NSaved= 9 IEnMin= 9 EnMin=-0.957823556517212     IErMin= 9 ErrMin= 7.88D-07
 ErrMax= 7.88D-07  0.00D+00 EMaxC= 1.00D-01 BMatC= 3.56D-11 BMatP= 3.83D-10
 IDIUse=1 WtCom= 1.00D+00 WtEn= 0.00D+00
 Coeff-Com:  0.564D-04-0.193D-03-0.163D-02 0.113D-01-0.325D-01 0.638D-01
 Coeff-Com: -0.914D-02-0.541D+00 0.151D+01
 Coeff:      0.564D-04-0.193D-03-0.163D-02 0.113D-01-0.325D-01 0.638D-01
 Coeff:     -0.914D-02-0.541D+00 0.151D+01
 Gap=     0.354 Goal=   None    Shift=    0.000
 RMSDP=1.60D-06 MaxDP=1.34D-05 DE=-3.55D-09 OVMax= 1.84D-05

 Cycle  10  Pass 1  IDiag  3:
 E=-0.957823556852176     Delta-E=       -0.000000000335 Rises=F Damp=F
 DIIS: error= 1.80D-07 at cycle  10 NSaved=  10.
 NSaved=10 IEnMin=10 EnMin=-0.957823556852176     IErMin=10 ErrMin= 1.80D-07
 ErrMax= 1.80D-07  0.00D+00 EMaxC= 1.00D-01 BMatC= 1.72D-12 BMatP= 3.56D-11
 IDIUse=1 WtCom= 1.00D+00 WtEn= 0.00D+00
 Coeff-Com: -0.235D-04 0.760D-04 0.792D-03-0.525D-02 0.152D-01-0.308D-01
 Coeff-Com:  0.180D-01 0.208D+00-0.727D+00 0.152D+01
 Coeff:     -0.235D-04 0.760D-04 0.792D-03-0.525D-02 0.152D-01-0.308D-01
 Coeff:      0.180D-01 0.208D+00-0.727D+00 0.152D+01
 Gap=     0.354 Goal=   None    Shift=    0.000
 RMSDP=2.94D-07 MaxDP=1.59D-06 DE=-3.35D-10 OVMax= 3.26D-06

 Cycle  11  Pass 1  IDiag  3:
 E=-0.957823556868377     Delta-E=       -0.000000000016 Rises=F Damp=F
 DIIS: error= 7.51D-08 at cycle  11 NSaved=  11.
 NSaved=11 IEnMin=11 EnMin=-0.957823556868377     IErMin=11 ErrMin= 7.51D-08
 ErrMax= 7.51D-08  0.00D+00 EMaxC= 1.00D-01 BMatC= 2.23D-13 BMatP= 1.72D-12
 IDIUse=1 WtCom= 1.00D+00 WtEn= 0.00D+00
 Coeff-Com:  0.731D-05-0.227D-04-0.286D-03 0.183D-02-0.530D-02 0.110D-01
 Coeff-Com: -0.755D-02-0.711D-01 0.269D+00-0.828D+00 0.163D+01
 Coeff:      0.731D-05-0.227D-04-0.286D-03 0.183D-02-0.530D-02 0.110D-01
 Coeff:     -0.755D-02-0.711D-01 0.269D+00-0.828D+00 0.163D+01
 Gap=     0.354 Goal=   None    Shift=    0.000
 RMSDP=1.30D-07 MaxDP=7.27D-07 DE=-1.62D-11 OVMax= 1.67D-06

 Cycle  12  Pass 1  IDiag  3:
 E=-0.957823556870778     Delta-E=       -0.000000000002 Rises=F Damp=F
 DIIS: error= 2.64D-08 at cycle  12 NSaved=  12.
 NSaved=12 IEnMin=12 EnMin=-0.957823556870778     IErMin=12 ErrMin= 2.64D-08
 ErrMax= 2.64D-08  0.00D+00 EMaxC= 1.00D-01 BMatC= 2.84D-14 BMatP= 2.23D-13
 IDIUse=1 WtCom= 1.00D+00 WtEn= 0.00D+00
 Coeff-Com: -0.260D-05 0.785D-05 0.118D-03-0.729D-03 0.210D-02-0.439D-02
 Coeff-Com:  0.301D-02 0.298D-01-0.114D+00 0.394D+00-0.111D+01 0.180D+01
 Coeff:     -0.260D-05 0.785D-05 0.118D-03-0.729D-03 0.210D-02-0.439D-02
 Coeff:      0.301D-02 0.298D-01-0.114D+00 0.394D+00-0.111D+01 0.180D+01
 Gap=     0.354 Goal=   None    Shift=    0.000
 RMSDP=5.77D-08 MaxDP=3.48D-07 DE=-2.40D-12 OVMax= 7.61D-07

 Cycle  13  Pass 1  IDiag  3:
 E=-0.957823556871077     Delta-E=        0.000000000000 Rises=F Damp=F
 DIIS: error= 5.48D-09 at cycle  13 NSaved=  13.
 NSaved=13 IEnMin=13 EnMin=-0.957823556871077     IErMin=13 ErrMin= 5.48D-09
 ErrMax= 5.48D-09  0.00D+00 EMaxC= 1.00D-01 BMatC= 1.96D-15 BMatP= 2.84D-14
 IDIUse=1 WtCom= 1.00D+00 WtEn= 0.00D+00
 Coeff-Com:  0.298D-06-0.417D-06-0.303D-04 0.162D-03-0.450D-03 0.965D-03
 Coeff-Com: -0.708D-03-0.700D-02 0.278D-01-0.120D+00 0.438D+00-0.976D+00
 Coeff-Com:  0.164D+01
 Coeff:      0.298D-06-0.417D-06-0.303D-04 0.162D-03-0.450D-03 0.965D-03
 Coeff:     -0.708D-03-0.700D-02 0.278D-01-0.120D+00 0.438D+00-0.976D+00
 Coeff:      0.164D+01
 Gap=     0.354 Goal=   None    Shift=    0.000
 RMSDP=1.33D-08 MaxDP=8.47D-08 DE=-2.98D-13 OVMax= 1.63D-07

 Cycle  14  Pass 1  IDiag  3:
 E=-0.957823556871034     Delta-E=        0.000000000000 Rises=F Damp=F
 DIIS: error= 1.11D-09 at cycle  14 NSaved=  14.
 NSaved=14 IEnMin=13 EnMin=-0.957823556871077     IErMin=14 ErrMin= 1.11D-09
 ErrMax= 1.11D-09  0.00D+00 EMaxC= 1.00D-01 BMatC= 1.03D-16 BMatP= 1.96D-15
 IDIUse=1 WtCom= 1.00D+00 WtEn= 0.00D+00
 Coeff-Com: -0.127D-07-0.193D-06 0.892D-05-0.418D-04 0.112D-03-0.242D-03
 Coeff-Com:  0.112D-03 0.235D-02-0.892D-02 0.412D-01-0.165D+00 0.400D+00
 Coeff-Com: -0.817D+00 0.155D+01
 Coeff:     -0.127D-07-0.193D-06 0.892D-05-0.418D-04 0.112D-03-0.242D-03
 Coeff:      0.112D-03 0.235D-02-0.892D-02 0.412D-01-0.165D+00 0.400D+00
 Coeff:     -0.817D+00 0.155D+01
 Gap=     0.354 Goal=   None    Shift=    0.000
 RMSDP=2.35D-09 MaxDP=1.26D-08 DE= 4.26D-14 OVMax= 2.14D-08

 Cycle  15  Pass 2  IDiag  1:
 SCF Done:  E(RAM1) = -0.957823556871     A.U. after   15 cycles
            NFock= 14  Conv=0.24D-08     -V/T= 0.9408
 KE=-1.617953575139D+01 PE=-1.559328244510D+02 EE= 7.685842321614D+01
 Leave Link  502 at Sun Apr 10 09:58:31 2016, MaxMem=    33554432 cpu:         0.0
 (Enter /home/dustin/Applications/g09/g09/l801.exe)
 Range of M.O.s used for correlation:     1    24
 NBasis=    24 NAE=    13 NBE=    13 NFC=     0 NFV=     0
 NROrb=     24 NOA=    13 NOB=    13 NVA=    11 NVB=    11
 Leave Link  801 at Sun Apr 10 09:58:31 2016, MaxMem=    33554432 cpu:         0.0
 (Enter /home/dustin/Applications/g09/g09/l1101.exe)
 Using compressed storage, NAtomX=     9.
 Will process     10 centers per pass.
 Leave Link 1101 at Sun Apr 10 09:58:31 2016, MaxMem=    33554432 cpu:         0.0
 (Enter /home/dustin/Applications/g09/g09/l1102.exe)
 Symmetrizing basis deriv contribution to polar:
 IMax=3 JMax=2 DiffMx= 0.00D+00
 Leave Link 1102 at Sun Apr 10 09:58:31 2016, MaxMem=    33554432 cpu:         0.0
 (Enter /home/dustin/Applications/g09/g09/l1110.exe)
 Forming Gx(P) for the SCF density, NAtomX=     9.
 Integral derivatives from FoFJK, PRISM(SPDF).
 Do as many integral derivatives as possible in FoFJK.
 G2DrvN: MDV=      33495365.
 G2DrvN: will do    10 centers at a time, making    1 passes.
 Calling FoFCou, ICntrl=  3107 FMM=F I1Cent=   0 AccDes= 0.00D+00.
 FoFJK:  IHMeth= 8 ICntrl=    3107 DoSepK=F KAlg= 0 I1Cent=   0 FoldK=F
 IRaf=         0 NMat=   1 IRICut=       1 DoRegI=T DoRafI=F ISym2E= 0.
 FoFCou: FMM=F IPFlag=           0 FMFlag=      100000 FMFlg1=           0
         NFxFlg=           0 DoJE=F BraDBF=F KetDBF=F FulRan=T
         wScrn=  0.000000 ICntrl=    3107 IOpCl=  0 I1Cent=           0 NGrid=           0
         NMat0=    1 NMatS0=      1 NMatT0=    0 NMatD0=    1 NMtDS0=    0 NMtDT0=    0
 Symmetry not used in FoFCou.
 End of G2Drv F.D. properties file   721 does not exist.
 End of G2Drv F.D. properties file   722 does not exist.
 End of G2Drv F.D. properties file   788 does not exist.
 Leave Link 1110 at Sun Apr 10 09:58:31 2016, MaxMem=    33554432 cpu:         0.0
 (Enter /home/dustin/Applications/g09/g09/l1002.exe)
 Minotr:  Closed shell wavefunction.
          IDoAtm=111111111
          Direct CPHF calculation.
          Differentiating once with respect to electric field.
                with respect to dipole field.
          Differentiating once with respect to nuclear coordinates.
          Electric field/nuclear overlap derivatives assumed to be zero.
          Requested convergence is 1.0D-08 RMS, and 1.0D-07 maximum.
          NewPWx=T KeepS1=F KeepF1=F KeepIn=T MapXYZ=F SortEE=F KeepMc=T.
          MDV=      33495423 using IRadAn=       2.
 Keep J ints in memory in canonical form, NReq=871704.
 FoFCou: FMM=F IPFlag=           0 FMFlag=           0 FMFlg1=           0
         NFxFlg=           0 DoJE=F BraDBF=F KetDBF=F FulRan=T
         wScrn=  0.000000 ICntrl=     600 IOpCl=  2 I1Cent=           0 NGrid=           0
         NMat0=    1 NMatS0=     54 NMatT0=    0 NMatD0=    1 NMtDS0=    0 NMtDT0=    0
 Symmetry not used in FoFCou.
          Solving linear equations separately, MaxMat=       0.
          There are    30 degrees of freedom in the 1st order CPHF.  IDoFFX=5 NUNeed=    30.
 LinEq1:  Iter=  0 NonCon=    30 RMS=4.57D-01 Max=2.77D+00 NDo=    30
 AX will form    30 AO Fock derivatives at one time.
 LinEq1:  Iter=  1 NonCon=    30 RMS=9.17D-02 Max=3.99D-01 NDo=    30
 LinEq1:  Iter=  2 NonCon=    30 RMS=1.10D-02 Max=6.93D-02 NDo=    30
 LinEq1:  Iter=  3 NonCon=    30 RMS=1.68D-03 Max=9.66D-03 NDo=    30
 LinEq1:  Iter=  4 NonCon=    30 RMS=4.36D-04 Max=2.36D-03 NDo=    30
 LinEq1:  Iter=  5 NonCon=    30 RMS=7.28D-05 Max=3.67D-04 NDo=    30
 LinEq1:  Iter=  6 NonCon=    30 RMS=9.72D-06 Max=3.61D-05 NDo=    30
 LinEq1:  Iter=  7 NonCon=    30 RMS=1.25D-06 Max=3.71D-06 NDo=    30
 LinEq1:  Iter=  8 NonCon=    14 RMS=1.53D-07 Max=5.39D-07 NDo=    30
 LinEq1:  Iter=  9 NonCon=     3 RMS=2.18D-08 Max=9.85D-08 NDo=    30
 LinEq1:  Iter= 10 NonCon=     0 RMS=2.88D-09 Max=1.19D-08 NDo=    30
 Linear equations converged to 1.000D-08 1.000D-07 after    10 iterations.
 FullF1:  Do perturbations    1 to     3.
 Isotropic polarizability for W=    0.000000       46.77 Bohr**3.
 End of Minotr F.D. properties file   721 does not exist.
 End of Minotr F.D. properties file   722 does not exist.
 End of Minotr F.D. properties file   788 does not exist.
 Leave Link 1002 at Sun Apr 10 09:58:31 2016, MaxMem=    33554432 cpu:         0.0
 (Enter /home/dustin/Applications/g09/g09/l601.exe)
 Copying SCF densities to generalized density rwf, IOpCl= 0 IROHF=0.

 **********************************************************************

            Population analysis using the SCF density.

 **********************************************************************

 Orbital symmetries:
       Occupied  (A) (A) (A) (A) (A) (A) (A) (A) (A) (A) (A) (A)
                 (A)
       Virtual   (A) (A) (A) (A) (A) (A) (A) (A) (A) (A) (A)
 The electronic state is 1-A.
 Alpha  occ. eigenvalues --   -1.53306  -1.19494  -0.99900  -0.80807  -0.71159
 Alpha  occ. eigenvalues --   -0.62985  -0.57263  -0.53572  -0.51399  -0.50637
 Alpha  occ. eigenvalues --   -0.44476  -0.38408  -0.36369
 Alpha virt. eigenvalues --   -0.00944   0.01306   0.02777   0.06291   0.11584
 Alpha virt. eigenvalues --    0.12903   0.14453   0.15841   0.17673   0.19608
 Alpha virt. eigenvalues --    0.20489
          Condensed to atoms (all electrons):
               1          2          3          4          5          6
     1  C    4.098453   0.000000   0.000000   0.000000   0.000000   0.000000
     2  C    0.000000   4.284116   0.000000   0.000000   0.000000   0.000000
     3  C    0.000000   0.000000   4.243926   0.000000   0.000000   0.000000
     4  C    0.000000   0.000000   0.000000   4.085752   0.000000   0.000000
     5  H    0.000000   0.000000   0.000000   0.000000   0.927887   0.000000
     6  H    0.000000   0.000000   0.000000   0.000000   0.000000   0.902404
     7  H    0.000000   0.000000   0.000000   0.000000   0.000000   0.000000
     8  H    0.000000   0.000000   0.000000   0.000000   0.000000   0.000000
     9  S    0.000000   0.000000   0.000000   0.000000   0.000000   0.000000
               7          8          9
     1  C    0.000000   0.000000   0.000000
     2  C    0.000000   0.000000   0.000000
     3  C    0.000000   0.000000   0.000000
     4  C    0.000000   0.000000   0.000000
     5  H    0.000000   0.000000   0.000000
     6  H    0.000000   0.000000   0.000000
     7  H    0.905714   0.000000   0.000000
     8  H    0.000000   0.923544   0.000000
     9  S    0.000000   0.000000   5.628204
 Mulliken charges:
               1
     1  C   -0.098453
     2  C   -0.284116
     3  C   -0.243926
     4  C   -0.085752
     5  H    0.072113
     6  H    0.097596
     7  H    0.094286
     8  H    0.076456
     9  S    0.371796
 Sum of Mulliken charges =   0.00000
 Mulliken charges with hydrogens summed into heavy atoms:
               1
     1  C   -0.021996
     2  C   -0.189830
     3  C   -0.146330
     4  C   -0.013639
     9  S    0.371796
 APT charges:
               1
     1  C   -0.223501
     2  C    0.217364
     3  C    0.165106
     4  C   -0.117495
     5  H    0.046435
     6  H    0.068110
     7  H    0.071577
     8  H    0.057913
     9  S   -0.285512
 Sum of APT charges =   0.00000
 APT charges with hydrogens summed into heavy atoms:
               1
     1  C   -0.165588
     2  C    0.288941
     3  C    0.233216
     4  C   -0.071060
     9  S   -0.285512
 Charge=              0.0000 electrons
 Dipole moment (field-independent basis, Debye):
    X=              0.1264    Y=             -0.0283    Z=              0.0149  Tot=              0.1304
 N-N= 9.429611342942D+01 E-N=-1.559328244287D+02  KE=-1.617953575139D+01
  Exact polarizability:  69.490   2.378  61.155   0.094   0.599   9.664
 Approx polarizability:  53.455   2.145  52.310   0.203   0.566   6.442
 Leave Link  601 at Sun Apr 10 09:58:31 2016, MaxMem=    33554432 cpu:         0.0
 (Enter /home/dustin/Applications/g09/g09/l701.exe)
 Compute integral second derivatives.
 ... and contract with generalized density number  0.
 Leave Link  701 at Sun Apr 10 09:58:31 2016, MaxMem=    33554432 cpu:         0.0
 (Enter /home/dustin/Applications/g09/g09/l702.exe)
 L702 exits ... SP integral derivatives will be done elsewhere.
 Leave Link  702 at Sun Apr 10 09:58:31 2016, MaxMem=    33554432 cpu:         0.0
 (Enter /home/dustin/Applications/g09/g09/l703.exe)
 Compute integral second derivatives, UseDBF=F ICtDFT=           0.
 Integral derivatives from FoFJK, PRISM(SPDF).
 Calling FoFJK, ICntrl=    100127 FMM=F ISym2X=0 I1Cent= 0 IOpClX= 0 NMat=1 NMatS=1 NMatT=0.
 FoFJK:  IHMeth= 8 ICntrl=  100127 DoSepK=F KAlg= 0 I1Cent=   0 FoldK=F
 IRaf=         0 NMat=   1 IRICut=       1 DoRegI=T DoRafI=F ISym2E= 0.
 FoFCou: FMM=F IPFlag=           0 FMFlag=      100000 FMFlg1=         800
         NFxFlg=           0 DoJE=F BraDBF=F KetDBF=F FulRan=T
         wScrn=  0.000000 ICntrl=  100127 IOpCl=  0 I1Cent=           0 NGrid=           0
         NMat0=    1 NMatS0=      1 NMatT0=    0 NMatD0=    1 NMtDS0=    0 NMtDT0=    0
 Symmetry not used in FoFCou.
 Leave Link  703 at Sun Apr 10 09:58:31 2016, MaxMem=    33554432 cpu:         0.0
 (Enter /home/dustin/Applications/g09/g09/l716.exe)
 Dipole        = 4.97321909D-02-1.11335115D-02 5.86380591D-03
 Polarizability= 6.94897542D+01 2.37779496D+00 6.11549745D+01
                 9.42192226D-02 5.99326561D-01 9.66368437D+00
 HyperPolar    =-1.14144282D+02 1.88103687D+01-3.72343683D+01
                -1.42045315D+01-3.04924949D+00 6.14676976D+00
                 1.25277966D+01-1.14858136D+01 1.01773395D+00
                 4.88918520D+00
 Full mass-weighted force constant matrix:
 Low frequencies --- -171.7324 -105.8610  -43.3535   -0.0030   -0.0006    0.0062
 Low frequencies ---  388.2793  460.0150  549.5310
 Diagonal vibrational polarizability:
       10.1440818       0.2327414       2.3500940
 Harmonic frequencies (cm**-1), IR intensities (KM/Mole), Raman scattering
 activities (A**4/AMU), depolarization ratios for plane and unpolarized
 incident light, reduced masses (AMU), force constants (mDyne/A),
 and normal coordinates:
                      1                      2                      3
                      A                      A                      A
 Frequencies --    386.9032               452.0770               549.4034
 Red. masses --      3.9638                 2.0677                11.5995
 Frc consts  --      0.3496                 0.2490                 2.0629
 IR Inten    --      3.2278                 0.7834                16.8744
  Atom  AN      X      Y      Z        X      Y      Z        X      Y      Z
     1   6     0.02   0.00  -0.11     0.02  -0.01  -0.15     0.25   0.01   0.02
     2   6    -0.01   0.00   0.31     0.00  -0.01   0.11     0.21   0.22  -0.02
     3   6    -0.01   0.00   0.29     0.00  -0.01  -0.13     0.28  -0.15  -0.01
     4   6     0.01   0.00  -0.13    -0.01   0.00   0.21     0.36   0.00  -0.01
     5   1     0.03   0.01  -0.32    -0.03   0.01   0.44     0.34   0.05  -0.08
     6   1    -0.01   0.03   0.49     0.02  -0.02  -0.24     0.28  -0.16  -0.09
     7   1    -0.02  -0.02   0.47    -0.01  -0.01   0.13     0.29   0.18  -0.07
     8   1     0.06  -0.01  -0.44     0.08  -0.03  -0.79     0.11  -0.19  -0.05
     9  16    -0.01   0.00  -0.14     0.00   0.01   0.00    -0.45  -0.03   0.02
                      4                      5                      6
                      A                      A                      A
 Frequencies --    619.4883               687.3515               753.2791
 Red. masses --      8.0920                 5.3678                 1.4842
 Frc consts  --      1.8297                 1.4942                 0.4962
 IR Inten    --      2.2644               119.5685                17.5431
  Atom  AN      X      Y      Z        X      Y      Z        X      Y      Z
     1   6     0.26  -0.16   0.02     0.07   0.04   0.00    -0.02   0.00   0.20
     2   6     0.29  -0.22  -0.04    -0.15   0.38   0.01     0.00   0.01  -0.05
     3   6    -0.28  -0.25   0.02    -0.22  -0.37   0.00    -0.01   0.00   0.02
     4   6    -0.18  -0.11  -0.01     0.12  -0.02   0.01    -0.01   0.00  -0.03
     5   1    -0.31   0.16  -0.07    -0.06   0.25   0.03     0.02  -0.01  -0.36
     6   1    -0.13  -0.21   0.05    -0.31  -0.37  -0.02     0.00  -0.02  -0.15
     7   1     0.18  -0.14  -0.07    -0.15   0.37  -0.02     0.01   0.03  -0.23
     8   1     0.48   0.13   0.05    -0.24  -0.31   0.07     0.09  -0.04  -0.86
     9  16    -0.04   0.28   0.01     0.09  -0.01  -0.01     0.01   0.00   0.00
                      7                      8                      9
                      A                      A                      A
 Frequencies --    868.1871               917.6180              1018.8828
 Red. masses --      4.8870                 1.2539                 1.3471
 Frc consts  --      2.1703                 0.6221                 0.8239
 IR Inten    --      3.2126                20.5518                 0.6975
  Atom  AN      X      Y      Z        X      Y      Z        X      Y      Z
     1   6     0.22  -0.21   0.01     0.02  -0.01  -0.06     0.00   0.00   0.04
     2   6     0.06   0.30   0.02     0.00   0.01  -0.01     0.00   0.00  -0.01
     3   6    -0.03   0.23  -0.04     0.00   0.03   0.11     0.00   0.01   0.08
     4   6    -0.26  -0.17  -0.02    -0.02  -0.01   0.06     0.01  -0.01  -0.15
     5   1    -0.26  -0.14   0.06     0.02  -0.02  -0.38    -0.08  -0.01   0.88
     6   1     0.42   0.31   0.18     0.00  -0.12  -0.89    -0.04  -0.06  -0.41
     7   1    -0.20   0.37  -0.04    -0.02   0.01   0.04     0.00  -0.01   0.09
     8   1     0.19  -0.20   0.06    -0.01  -0.01   0.16     0.02   0.00  -0.11
     9  16     0.00  -0.07   0.00     0.00   0.00  -0.01     0.00   0.00   0.00
                     10                     11                     12
                      A                      A                      A
 Frequencies --   1131.7718              1160.1555              1168.8874
 Red. masses --      1.2134                 1.1005                 1.0899
 Frc consts  --      0.9157                 0.8727                 0.8774
 IR Inten    --     12.6137                 7.3886                 6.3121
  Atom  AN      X      Y      Z        X      Y      Z        X      Y      Z
     1   6     0.00   0.00   0.02     0.02  -0.02   0.00    -0.01   0.06   0.00
     2   6     0.01   0.01  -0.13     0.05  -0.02   0.02     0.00  -0.03   0.02
     3   6    -0.01   0.00   0.00    -0.01   0.06  -0.01    -0.04  -0.03   0.01
     4   6     0.00   0.00   0.02     0.01   0.01   0.00    -0.01   0.01  -0.01
     5   1    -0.02   0.04  -0.06    -0.01   0.04   0.00    -0.15   0.26   0.01
     6   1     0.10   0.03   0.07    -0.40   0.02   0.01     0.85   0.07  -0.05
     7   1     0.00  -0.13   0.95     0.25  -0.08  -0.09     0.19  -0.07  -0.14
     8   1    -0.09  -0.13  -0.11    -0.52  -0.69  -0.02    -0.24  -0.23   0.00
     9  16     0.00   0.00   0.00     0.00   0.01   0.00     0.00   0.00   0.00
                     13                     14                     15
                      A                      A                      A
 Frequencies --   1268.9400              1343.4815              1454.0691
 Red. masses --      1.2517                 1.2498                 4.6846
 Frc consts  --      1.1875                 1.3290                 5.8357
 IR Inten    --      3.0870                 2.0282                84.4332
  Atom  AN      X      Y      Z        X      Y      Z        X      Y      Z
     1   6     0.07  -0.04   0.01     0.01   0.04   0.00     0.35   0.07   0.03
     2   6    -0.05  -0.08  -0.01     0.09  -0.04   0.00    -0.36  -0.12  -0.03
     3   6     0.03   0.03   0.00    -0.09   0.00   0.00    -0.16   0.13  -0.01
     4   6     0.05   0.05   0.00     0.02   0.06   0.00     0.13  -0.03   0.01
     5   1    -0.26   0.64  -0.02     0.34  -0.57   0.03     0.36  -0.43   0.01
     6   1    -0.07   0.02   0.00     0.19   0.04  -0.01     0.10   0.16  -0.01
     7   1    -0.68   0.14  -0.01    -0.62   0.22  -0.01     0.34  -0.38   0.00
     8   1     0.01  -0.12   0.00    -0.16  -0.18  -0.01     0.22  -0.08   0.00
     9  16    -0.01  -0.01   0.00     0.00  -0.01   0.00    -0.01   0.01   0.00
                     16                     17                     18
                      A                      A                      A
 Frequencies --   1573.9782              1668.5335              2889.5524
 Red. masses --      6.2703                 6.8016                 1.0796
 Frc consts  --      9.1524                11.1566                 5.3112
 IR Inten    --      0.2379                13.6164                18.2769
  Atom  AN      X      Y      Z        X      Y      Z        X      Y      Z
     1   6     0.20   0.40   0.01     0.09  -0.31   0.01     0.00   0.00   0.00
     2   6    -0.08  -0.06  -0.01    -0.14   0.02   0.00    -0.03  -0.07  -0.01
     3   6     0.32  -0.17   0.01     0.17  -0.17   0.01     0.00   0.00   0.00
     4   6    -0.35  -0.11  -0.01    -0.21   0.54  -0.03     0.00   0.00   0.00
     5   1    -0.21  -0.29   0.00     0.28  -0.35   0.06     0.01   0.00   0.00
     6   1    -0.22  -0.27   0.03     0.25  -0.15   0.00     0.00   0.00   0.00
     7   1    -0.32   0.05   0.00     0.28  -0.17   0.00     0.33   0.93   0.12
     8   1    -0.33  -0.24  -0.04     0.08  -0.26   0.02     0.00   0.00   0.00
     9  16     0.00   0.00   0.00     0.01   0.00   0.00     0.00   0.00   0.00
                     19                     20                     21
                      A                      A                      A
 Frequencies --   3232.0751              3311.0414              3610.6773
 Red. masses --      1.0764                 1.0833                 1.0786
 Frc consts  --      6.6253                 6.9970                 8.2851
 IR Inten    --      2.6851                17.2434                 5.8078
  Atom  AN      X      Y      Z        X      Y      Z        X      Y      Z
     1   6     0.00   0.00   0.00     0.00   0.00   0.00    -0.06   0.05  -0.01
     2   6     0.00   0.00   0.00     0.00   0.00   0.00     0.00   0.00   0.00
     3   6     0.00   0.00   0.00     0.01  -0.08   0.01     0.00   0.00   0.00
     4   6    -0.07  -0.04  -0.01    -0.01   0.00   0.00     0.00   0.00   0.00
     5   1     0.88   0.47   0.08     0.04   0.02   0.00     0.01   0.01   0.00
     6   1     0.00  -0.04   0.01    -0.12   0.98  -0.15     0.00   0.01   0.00
     7   1     0.00  -0.01   0.00     0.00   0.00   0.00     0.00   0.00   0.00
     8   1    -0.01   0.01   0.00    -0.01   0.01   0.00     0.77  -0.62   0.10
     9  16     0.00   0.00   0.00     0.00   0.00   0.00     0.00   0.00   0.00

 -------------------
 - Thermochemistry -
 -------------------
 Temperature   298.150 Kelvin.  Pressure   1.00000 Atm.
 Atom     1 has atomic number  6 and mass  12.00000
 Atom     2 has atomic number  6 and mass  12.00000
 Atom     3 has atomic number  6 and mass  12.00000
 Atom     4 has atomic number  6 and mass  12.00000
 Atom     5 has atomic number  1 and mass   1.00783
 Atom     6 has atomic number  1 and mass   1.00783
 Atom     7 has atomic number  1 and mass   1.00783
 Atom     8 has atomic number  1 and mass   1.00783
 Atom     9 has atomic number 16 and mass  31.97207
 Molecular mass:    84.00337 amu.
 Principal axes and moments of inertia in atomic units:
                           1         2         3
     Eigenvalues --   227.03229 337.64584 562.76805
           X            0.99960   0.02745   0.00624
           Y           -0.02744   0.99962  -0.00151
           Z           -0.00628   0.00134   0.99998
 This molecule is an asymmetric top.
 Rotational symmetry number  1.
 Rotational temperatures (Kelvin)      0.38150     0.25652     0.15391
 Rotational constants (GHZ):           7.94927     5.34507     3.20690
 Zero-point vibrational energy     179836.7 (Joules/Mol)
                                   42.98201 (Kcal/Mol)
 Warning -- explicit consideration of   4 degrees of freedom as
           vibrations may cause significant error
 Vibrational temperatures:    556.67   650.44   790.47   891.30   988.94
          (Kelvin)           1083.80  1249.13  1320.25  1465.94  1628.37
                             1669.20  1681.77  1825.72  1932.97  2092.08
                             2264.60  2400.64  4157.42  4650.23  4763.84
                             5194.95
 
 Zero-point correction=                           0.068496 (Hartree/Particle)
 Thermal correction to Energy=                    0.072704
 Thermal correction to Enthalpy=                  0.073648
 Thermal correction to Gibbs Free Energy=         0.041143
 Sum of electronic and zero-point Energies=             -0.889327
 Sum of electronic and thermal Energies=                -0.885120
 Sum of electronic and thermal Enthalpies=              -0.884176
 Sum of electronic and thermal Free Energies=           -0.916680
 
                     E (Thermal)             CV                S
                      KCal/Mol        Cal/Mol-Kelvin    Cal/Mol-Kelvin
 Total                   45.622             15.102             68.412
 Electronic               0.000              0.000              0.000
 Translational            0.889              2.981             39.198
 Rotational               0.889              2.981             25.270
 Vibrational             43.845              9.141              3.943
 Vibration     1          0.755              1.498              1.012
 Vibration     2          0.811              1.356              0.790
 Vibration     3          0.905              1.141              0.545
 Vibration     4          0.979              0.991              0.417
                       Q            Log10(Q)             Ln(Q)
 Total Bot       0.118956D-18        -18.924613        -43.575533
 Total V=0       0.381400D+13         12.581381         28.969701
 Vib (Bot)       0.528689D-31        -31.276799        -72.017492
 Vib (Bot)    1  0.465047D+00         -0.332504         -0.765618
 Vib (Bot)    2  0.378692D+00         -0.421714         -0.971032
 Vib (Bot)    3  0.285805D+00         -0.543930         -1.252445
 Vib (Bot)    4  0.236194D+00         -0.626730         -1.443100
 Vib (V=0)       0.169510D+01          0.229195          0.527741
 Vib (V=0)    1  0.118284D+01          0.072925          0.167917
 Vib (V=0)    2  0.112722D+01          0.052010          0.119756
 Vib (V=0)    3  0.107592D+01          0.031780          0.073177
 Vib (V=0)    4  0.105298D+01          0.022420          0.051625
 Electronic      0.100000D+01          0.000000          0.000000
 Translational   0.302622D+08          7.480900         17.225409
 Rotational      0.743508D+05          4.871286         11.216550
 
                                                                 best
                                                             IR Spectrum
 
      3         3  3           2                                          1  1   1   1  1  111   1                                   
      6         3  2           8                                          6  5   4   3  2  111   0  9 8   7 6  6 5   4 3             
      1         1  3           9                                          6  7   5   4  6  663   1  1 6   5 8  1 4   5 8             
      1         1  2           0                                          9  4   4   3  9  902   9  8 8   3 7  9 9   2 7             
 
      X         X  X           X                                          X  X   X   X  X  XXX   X  X X   X X  X X   X X             
                X              X                                          X      X           X      X     X X    X                   
                X              X                                                 X                  X     X X    X                   
                                                                                 X                          X                        
                                                                                 X                          X                        
                                                                                 X                          X                        
                                                                                 X                          X                        
                                                                                 X                          X                        
                                                                                 X                          X                        
                                                                                 X                          X                        
                                                                                 X                          X                        
                                                                                 X                          X                        
                                                                                 X                          X                        
                                                                                 X                          X                        
                                                                                                            X                        
                                                                                                            X                        
                                                                                                            X                        
                                                                                                            X                        
                                                                                                            X                        
                                                                                                            X                        
 
 ***** Axes restored to original set *****
 -------------------------------------------------------------------
 Center     Atomic                   Forces (Hartrees/Bohr)
 Number     Number              X              Y              Z
 -------------------------------------------------------------------
      1        6          -0.033931042   -0.048382338    0.001709846
      2        6           0.031300183   -0.059753152    0.001227622
      3        6          -0.002518293   -0.000677196    0.006673401
      4        6           0.014997600    0.076928513   -0.006619184
      5        1          -0.006287265   -0.011438414    0.005119078
      6        1           0.001370135   -0.010664688   -0.008888419
      7        1           0.014589162    0.042493506   -0.009386758
      8        1           0.017659588   -0.016980632    0.002348784
      9       16          -0.037180069    0.028474401    0.007815631
 -------------------------------------------------------------------
 Cartesian Forces:  Max     0.076928513 RMS     0.026972280
 Z-matrix is all fixed cartesians, so copy forces.
 Force constants in Cartesian coordinates: 
                1             2             3             4             5 
      1  0.787907D+00
      2 -0.118372D+00  0.813519D+00
      3 -0.472966D-01  0.364309D-01  0.125921D+00
      4 -0.337380D+00 -0.441725D-01  0.154828D-01  0.515009D+00
      5 -0.142558D+00 -0.118640D+00  0.506660D-02  0.182612D+00  0.538690D+00
      6  0.153141D-01  0.576631D-02 -0.663995D-01 -0.172052D-01 -0.219075D-01
      7  0.869165D-02  0.105004D+00  0.477132D-02 -0.333558D-01  0.109804D-01
      8  0.464720D-01 -0.733573D-01 -0.315814D-02 -0.640771D-02 -0.423784D-01
      9  0.417541D-02 -0.225788D-02  0.605359D-02 -0.174964D-02  0.106453D-02
     10 -0.689196D-01 -0.553043D-01 -0.252913D-02  0.293824D-02 -0.578917D-01
     11  0.554482D-01 -0.438758D+00 -0.208604D-01 -0.121583D+00 -0.678323D-01
     12  0.111156D-02 -0.210316D-01 -0.528275D-01 -0.172784D-02 -0.138603D-02
     13 -0.801619D-03 -0.839053D-02  0.260131D-03 -0.147251D-03  0.112076D-02
     14 -0.297526D-01 -0.298683D-01 -0.130525D-03 -0.138030D-03 -0.424324D-02
     15 -0.735326D-03  0.227650D-03  0.461630D-02 -0.615436D-03 -0.604925D-03
     16 -0.395580D-02  0.145386D-02  0.981629D-04 -0.267935D-02 -0.367405D-02
     17  0.146751D-02  0.511573D-03 -0.126464D-02 -0.157676D-02 -0.179588D-02
     18  0.924498D-04 -0.285484D-03  0.683976D-02 -0.428637D-03 -0.653258D-04
     19 -0.101543D-01 -0.321589D-01  0.160860D-02 -0.599216D-01 -0.411140D-01
     20 -0.113265D-01 -0.144072D-01  0.120464D-02 -0.477522D-01 -0.243516D+00
     21 -0.115979D-03  0.163129D-02  0.240039D-02  0.568286D-02  0.185133D-01
     22 -0.292679D+00  0.167606D+00  0.309508D-01 -0.427984D-01  0.113794D-01
     23  0.165910D+00 -0.139830D+00 -0.188230D-01 -0.809824D-02  0.821411D-02
     24  0.318143D-01 -0.182703D-01 -0.353481D-01  0.154268D-02 -0.133124D-02
     25 -0.827082D-01 -0.156650D-01 -0.334580D-02 -0.416649D-01  0.391448D-01
     26  0.327115D-01  0.831276D-03  0.153456D-02  0.471158D-01 -0.684984D-01
     27 -0.436016D-02 -0.221114D-02  0.874462D-02 -0.981194D-03  0.650686D-03
                6             7             8             9            10 
      6  0.126994D+00
      7 -0.149571D-02  0.546739D+00
      8 -0.253844D-02 -0.254280D+00  0.653183D+00
      9  0.313091D-02 -0.216628D-01  0.672248D-01  0.115349D+00
     10  0.648301D-03 -0.383937D+00  0.196002D+00  0.134418D-01  0.768110D+00
     11 -0.247783D-02  0.108159D+00 -0.145609D+00 -0.779562D-02  0.222740D-01
     12  0.576879D-02  0.761276D-02 -0.607282D-02 -0.585254D-01 -0.201665D-01
     13  0.113657D-03 -0.476533D-01 -0.970836D-02  0.111246D-02 -0.226653D+00
     14 -0.255221D-03  0.578427D-02  0.732334D-02  0.210514D-03 -0.121930D+00
     15  0.345828D-02  0.160920D-03  0.161421D-02  0.710596D-02  0.121675D-01
     16 -0.294882D-03 -0.503715D-01  0.575077D-01  0.980961D-02 -0.958275D-02
     17 -0.458969D-03  0.626267D-01 -0.325922D+00 -0.524048D-01  0.130145D-01
     18  0.157516D-02  0.118503D-01 -0.543056D-01 -0.485376D-01  0.171605D-03
     19  0.415968D-02 -0.263347D-02  0.299908D-02 -0.258357D-03 -0.447456D-02
     20  0.183684D-01  0.172982D-02 -0.161767D-02  0.226481D-03 -0.785183D-03
     21 -0.563401D-01 -0.412683D-03 -0.257695D-04  0.936710D-03  0.443588D-03
     22  0.285417D-02  0.307235D-04 -0.108956D-02  0.115900D-03 -0.746006D-03
     23  0.174554D-03 -0.174691D-03 -0.439853D-02 -0.620556D-03  0.324835D-01
     24  0.520329D-02  0.453872D-04  0.137867D-04  0.317455D-02  0.203019D-02
     25 -0.409424D-02 -0.375102D-01 -0.314945D-01 -0.498488D-02 -0.767354D-01
     26  0.332881D-02 -0.398290D-01 -0.672242D-01 -0.564761D-02 -0.278630D-01
     27 -0.233922D-01 -0.869154D-03 -0.275183D-02 -0.286884D-01 -0.620722D-02
               11            12            13            14            15 
     11  0.841898D+00
     12  0.295532D-01  0.131398D+00
     13 -0.126445D+00  0.980420D-02  0.277500D+00
     14 -0.130808D+00  0.551125D-02  0.143592D+00  0.157168D+00
     15  0.470672D-02 -0.483527D-01 -0.114247D-01 -0.564006D-02  0.306627D-01
     16  0.340757D-01  0.410357D-02  0.185371D-03  0.394333D-04 -0.930548D-04
     17 -0.188171D-01 -0.261653D-02  0.251628D-03  0.136671D-03  0.300661D-03
     18 -0.188649D-02  0.196931D-02 -0.530099D-04  0.333908D-04 -0.168315D-02
     19 -0.100190D-02  0.450720D-03  0.123699D-03 -0.901038D-03 -0.126326D-03
     20  0.909270D-04  0.957274D-03  0.197966D-04 -0.208471D-03 -0.311950D-04
     21 -0.195123D-03  0.723080D-02 -0.608166D-04  0.119830D-03 -0.259560D-03
     22  0.106609D-01  0.129728D-02  0.168024D-03  0.660608D-04 -0.732226D-04
     23 -0.356822D-01 -0.348033D-02 -0.630427D-04 -0.298759D-04  0.763018D-04
     24 -0.341055D-02  0.573585D-02 -0.700964D-04 -0.175496D-04 -0.761210D-03
     25  0.184115D-01 -0.248540D-02 -0.272235D-02  0.324003D-02  0.739518D-03
     26 -0.448287D-02 -0.143436D-02 -0.377349D-03  0.529404D-03 -0.649433D-03
     27  0.236597D-02  0.760373D-02  0.318183D-03  0.168383D-03  0.521350D-02
               16            17            18            19            20 
     16  0.664052D-01
     17 -0.739880D-01  0.361542D+00
     18 -0.122172D-01  0.584879D-01  0.382411D-01
     19  0.779573D-03  0.414380D-03  0.993004D-04  0.753641D-01
     20 -0.445365D-03 -0.295460D-03  0.880710D-04  0.557615D-01  0.281542D+00
     21  0.171517D-03 -0.581693D-04  0.753018D-03 -0.529526D-02 -0.222206D-01
     22  0.154888D-03  0.000000D+00  0.000000D+00  0.537576D-03 -0.124285D-03
     23  0.945430D-03 -0.271402D-03 -0.246367D-05  0.294678D-03  0.180098D-03
     24 -0.922476D-04 -0.310022D-04 -0.135057D-03 -0.193925D-03 -0.199816D-03
     25 -0.935689D-03 -0.221028D-02  0.485831D-03  0.379051D-03  0.292239D-02
     26 -0.159148D-01 -0.150894D-01 -0.206408D-02  0.157063D-01 -0.217685D-01
     27 -0.148551D-02 -0.195439D-02  0.977377D-03 -0.444527D-03  0.160664D-02
               21            22            23            24            25 
     21  0.439671D-01
     22 -0.211616D-03  0.337739D+00
     23  0.637846D-04 -0.188467D+00  0.171604D+00
     24 -0.197782D-02 -0.354914D-01  0.231476D-01  0.184923D-01
     25 -0.201792D-03 -0.240702D-02 -0.283114D-02  0.415243D-03  0.244305D+00
     26  0.217152D-02 -0.316909D-04  0.214307D-03  0.990158D-04 -0.115179D-01
     27  0.328930D-02  0.558786D-03 -0.535950D-03  0.561635D-02  0.134712D-01
               26            27 
     26  0.175488D+00
     27  0.266170D-02  0.206365D-01
 Leave Link  716 at Sun Apr 10 09:58:31 2016, MaxMem=    33554432 cpu:         0.0
 (Enter /home/dustin/Applications/g09/g09/l103.exe)

 GradGradGradGradGradGradGradGradGradGradGradGradGradGradGradGradGradGrad
 Berny optimization.
 Search for a local minimum.
 Step number   1 out of a maximum of    2
 All quantities printed in internal units (Hartrees-Bohrs-Radians)
 Second derivative matrix not updated -- analytic derivatives used.
 ITU=  0
     Eigenvalues ---    0.01467   0.02507   0.04977   0.05549   0.05575
     Eigenvalues ---    0.06600   0.09393   0.13191   0.14214   0.16067
     Eigenvalues ---    0.18316   0.23024   0.26829   0.28878   0.43773
     Eigenvalues ---    0.52527   0.70122   0.87758   1.11740   1.32646
     Eigenvalues ---    1.41463
 Quadratic step=6.221D-01 exceeds max=3.000D-01 adjusted using Lamda=-5.082D-02.
 Angle between NR and scaled steps=  26.46 degrees.
 Angle between quadratic step and forces=  42.45 degrees.
 Linear search not attempted -- first point.
 TrRot= -0.010623  0.004377  0.008472 -0.109257  0.009932  0.108450
 Variable       Old X    -DE/DX   Delta X   Delta X   Delta X     New X
                                 (Linear)    (Quad)   (Total)
    X1        1.67595  -0.03393   0.00000  -0.02249  -0.03531   1.64064
    Y1       -1.29159  -0.04838   0.00000  -0.04799  -0.04483  -1.33642
    Z1       -0.10292   0.00171   0.00000  -0.00102  -0.01031  -0.11322
    X2       -0.77868   0.03130   0.00000   0.08287   0.06996  -0.70873
    Y2       -2.27237  -0.05975   0.00000  -0.08677  -0.08179  -2.35415
    Z2       -0.01001   0.00123   0.00000  -0.03091  -0.01810  -0.02811
    X3       -0.62809  -0.00252   0.00000   0.00348  -0.00424  -0.63233
    Y3        2.46756  -0.00068   0.00000  -0.00703  -0.00225   2.46531
    Z3        0.08076   0.00667   0.00000   0.00725   0.02453   0.10529
    X4        1.69235   0.01500   0.00000   0.00439  -0.00526   1.68709
    Y4        1.30712   0.07693   0.00000   0.06644   0.06946   1.37658
    Z4        0.02901  -0.00662   0.00000  -0.03548  -0.04229  -0.01328
    X5        3.40978  -0.00629   0.00000   0.02815   0.01915   3.42893
    Y5        2.49164  -0.01144   0.00000  -0.03796  -0.03632   2.45531
    Z5       -0.06912   0.00512   0.00000   0.04846   0.02563  -0.04348
    X6       -1.04583   0.00137   0.00000  -0.01027  -0.01370  -1.05953
    Y6        4.44393  -0.01066   0.00000  -0.01490  -0.01007   4.43386
    Z6        0.45227  -0.00889   0.00000  -0.09274  -0.06910   0.38317
    X7       -1.29635   0.01459   0.00000   0.07727   0.06432  -1.23203
    Y7       -4.36531   0.04249   0.00000   0.06136   0.06660  -4.29871
    Z7        0.20396  -0.00939   0.00000  -0.09125  -0.07537   0.12859
    X8        3.34691   0.01766   0.00000   0.04458   0.02967   3.37658
    Y8       -2.35597  -0.01698   0.00000  -0.04692  -0.04502  -2.40099
    Z8       -0.30264   0.00235   0.00000   0.08290   0.05531  -0.24733
    X9       -2.97912  -0.03718   0.00000  -0.11278  -0.12460  -3.10371
    Y9       -0.00645   0.02847   0.00000   0.07721   0.08423   0.07778
    Z9       -0.21294   0.00782   0.00000   0.07060   0.10968  -0.10325
         Item               Value     Threshold  Converged?
 Maximum Force            0.076929     0.000450     NO 
 RMS     Force            0.026972     0.000300     NO 
 Maximum Displacement     0.124596     0.001800     NO 
 RMS     Displacement     0.056047     0.001200     NO 
 Predicted change in Energy=-1.786191D-02
 GradGradGradGradGradGradGradGradGradGradGradGradGradGradGradGradGradGrad

 Leave Link  103 at Sun Apr 10 09:58:31 2016, MaxMem=    33554432 cpu:         0.0
 (Enter /home/dustin/Applications/g09/g09/l9999.exe)
 1\1\GINC-DUSTIN-DESKTOP\Freq\RAM1\ZDO\C4H4S1\DUSTIN\10-Apr-2016\0\\#P 
 AM1(Input,Print) freq\\best\\0,1\C,0.886877,-0.683479,-0.054462\C,-0.4
 12061,-1.202485,-0.005295\C,-0.332371,1.305778,0.042737\C,0.895551,0.6
 917,0.015352\H,1.80438,1.318517,-0.036575\H,-0.55343,2.351628,0.239331
 \H,-0.685998,-2.310021,0.107929\H,1.771106,-1.246727,-0.160151\S,-1.57
 6482,-0.003414,-0.112682\\Version=ES64L-G09RevD.01\State=1-A\HF=-0.957
 8236\RMSD=2.352e-09\RMSF=2.697e-02\ZeroPoint=0.0684962\Thermal=0.07270
 39\Dipole=-0.0507194,0.0060672,0.0047292\DipoleDeriv=-0.4797556,-0.004
 3542,-0.0771301,-0.4053137,-0.1046539,-0.0404768,-0.0330109,0.0143278,
 -0.0860932,0.9472487,-0.035139,0.1098534,-0.5108884,-0.0943443,-0.1033
 371,0.0883129,-0.0224662,-0.200813,0.8228766,0.226514,0.1394369,0.4152
 601,-0.0802104,0.1186155,0.0984011,0.0679605,-0.2473496,-0.3769592,-0.
 0821501,-0.0752781,0.3825364,0.0488021,0.0479983,-0.0324334,-0.025449,
 -0.0243273,0.023758,-0.000155,-0.003314,0.0465997,0.0384561,0.0012051,
 0.015517,-0.0015487,0.0770896,-0.0369306,-0.0476766,-0.0116864,-0.0612
 823,0.1067524,-0.0079656,-0.0023052,-0.0219905,0.1345088,0.0005254,0.0
 257039,-0.0028454,0.0625982,0.1053797,0.0030204,-0.001826,-0.0026082,0
 .108826,0.0493626,-0.0084806,-0.0004882,-0.0403827,0.0329209,-0.005551
 2,0.0075513,0.0027587,0.091456,-0.9501334,-0.0742567,-0.078548,0.11087
 54,-0.0531018,-0.0135091,-0.1401954,-0.0109695,0.1466997\Polar=68.9074
 265,3.1149161,61.6854783,1.5935893,0.9950829,9.7155083\HyperPolar=119.
 259921,-14.326459,31.4409067,23.1250329,-2.0180184,4.7225008,15.059472
 5,11.5027864,1.0293837,5.8341582\PG=C01 [X(C4H4S1)]\NImag=0\\0.7879071
 0,-0.11837165,0.81351851,-0.04729656,0.03643093,0.12592079,-0.33738036
 ,-0.04417245,0.01548278,0.51500911,-0.14255798,-0.11864040,0.00506660,
 0.18261240,0.53869016,0.01531406,0.00576631,-0.06639948,-0.01720522,-0
 .02190755,0.12699448,0.00869165,0.10500407,0.00477132,-0.03335583,0.01
 098045,-0.00149571,0.54673898,0.04647196,-0.07335728,-0.00315814,-0.00
 640771,-0.04237836,-0.00253844,-0.25427997,0.65318346,0.00417541,-0.00
 225788,0.00605359,-0.00174964,0.00106453,0.00313091,-0.02166278,0.0672
 2482,0.11534885,-0.06891959,-0.05530426,-0.00252913,0.00293824,-0.0578
 9167,0.00064830,-0.38393697,0.19600175,0.01344179,0.76811040,0.0554481
 7,-0.43875800,-0.02086035,-0.12158295,-0.06783229,-0.00247783,0.108158
 80,-0.14560910,-0.00779562,0.02227400,0.84189843,0.00111156,-0.0210316
 2,-0.05282747,-0.00172784,-0.00138603,0.00576879,0.00761276,-0.0060728
 2,-0.05852541,-0.02016651,0.02955319,0.13139790,-0.00080162,-0.0083905
 3,0.00026013,-0.00014725,0.00112076,0.00011366,-0.04765334,-0.00970836
 ,0.00111246,-0.22665289,-0.12644482,0.00980420,0.27750017,-0.02975261,
 -0.02986830,-0.00013053,-0.00013803,-0.00424324,-0.00025522,0.00578427
 ,0.00732334,0.00021051,-0.12193017,-0.13080786,0.00551125,0.14359193,0
 .15716834,-0.00073533,0.00022765,0.00461630,-0.00061544,-0.00060492,0.
 00345828,0.00016092,0.00161421,0.00710596,0.01216745,0.00470672,-0.048
 35271,-0.01142472,-0.00564006,0.03066267,-0.00395580,0.00145386,0.0000
 9816,-0.00267935,-0.00367405,-0.00029488,-0.05037150,0.05750773,0.0098
 0961,-0.00958275,0.03407574,0.00410357,0.00018537,0.00003943,-0.000093
 05,0.06640518,0.00146751,0.00051157,-0.00126464,-0.00157676,-0.0017958
 8,-0.00045897,0.06262672,-0.32592151,-0.05240483,0.01301451,-0.0188171
 4,-0.00261653,0.00025163,0.00013667,0.00030066,-0.07398796,0.36154245,
 0.00009245,-0.00028548,0.00683976,-0.00042864,-0.00006533,0.00157516,0
 .01185027,-0.05430564,-0.04853761,0.00017161,-0.00188649,0.00196931,-0
 .00005301,0.00003339,-0.00168315,-0.01221718,0.05848794,0.03824114,-0.
 01015432,-0.03215894,0.00160860,-0.05992164,-0.04111400,0.00415968,-0.
 00263347,0.00299908,-0.00025836,-0.00447456,-0.00100190,0.00045072,0.0
 0012370,-0.00090104,-0.00012633,0.00077957,0.00041438,0.00009930,0.075
 36412,-0.01132651,-0.01440725,0.00120464,-0.04775219,-0.24351578,0.018
 36837,0.00172982,-0.00161767,0.00022648,-0.00078518,0.00009093,0.00095
 727,0.00001980,-0.00020847,-0.00003120,-0.00044536,-0.00029546,0.00008
 807,0.05576151,0.28154210,-0.00011598,0.00163129,0.00240039,0.00568286
 ,0.01851331,-0.05634010,-0.00041268,-0.00002577,0.00093671,0.00044359,
 -0.00019512,0.00723080,-0.00006082,0.00011983,-0.00025956,0.00017152,-
 0.00005817,0.00075302,-0.00529526,-0.02222063,0.04396710,-0.29267872,0
 .16760563,0.03095085,-0.04279838,0.01137940,0.00285417,0.00003072,-0.0
 0108956,0.00011590,-0.00074601,0.01066086,0.00129728,0.00016802,0.0000
 6606,-0.00007322,0.00015489,0.00000005,-0.00000069,0.00053758,-0.00012
 428,-0.00021162,0.33773885,0.16590997,-0.13983004,-0.01882297,-0.00809
 824,0.00821411,0.00017455,-0.00017469,-0.00439853,-0.00062056,0.032483
 54,-0.03568222,-0.00348033,-0.00006304,-0.00002988,0.00007630,0.000945
 43,-0.00027140,-0.00000246,0.00029468,0.00018010,0.00006378,-0.1884665
 2,0.17160358,0.03181426,-0.01827025,-0.03534813,0.00154268,-0.00133124
 ,0.00520329,0.00004539,0.00001379,0.00317455,0.00203019,-0.00341055,0.
 00573585,-0.00007010,-0.00001755,-0.00076121,-0.00009225,-0.00003100,-
 0.00013506,-0.00019392,-0.00019982,-0.00197782,-0.03549144,0.02314765,
 0.01849228,-0.08270822,-0.01566504,-0.00334580,-0.04166487,0.03914476,
 -0.00409424,-0.03751023,-0.03149452,-0.00498488,-0.07673538,0.01841152
 ,-0.00248540,-0.00272235,0.00324003,0.00073952,-0.00093569,-0.00221028
 ,0.00048583,0.00037905,0.00292239,-0.00020179,-0.00240702,-0.00283114,
 0.00041524,0.24430473,0.03271147,0.00083128,0.00153456,0.04711576,-0.0
 6849844,0.00332881,-0.03982897,-0.06722418,-0.00564761,-0.02786304,-0.
 00448287,-0.00143436,-0.00037735,0.00052940,-0.00064943,-0.01591475,-0
 .01508935,-0.00206408,0.01570627,-0.02176855,0.00217152,-0.00003169,0.
 00021431,0.00009902,-0.01151788,0.17548844,-0.00436016,-0.00221114,0.0
 0874462,-0.00098119,0.00065069,-0.02339224,-0.00086915,-0.00275183,-0.
 02868844,-0.00620722,0.00236597,0.00760373,0.00031818,0.00016838,0.005
 21350,-0.00148551,-0.00195439,0.00097738,-0.00044453,0.00160664,0.0032
 8930,0.00055879,-0.00053595,0.00561635,0.01347116,0.00266170,0.0206365
 1\\0.03393104,0.04838234,-0.00170985,-0.03130018,0.05975315,-0.0012276
 2,0.00251829,0.00067720,-0.00667340,-0.01499760,-0.07692851,0.00661918
 ,0.00628727,0.01143841,-0.00511908,-0.00137014,0.01066469,0.00888842,-
 0.01458916,-0.04249351,0.00938676,-0.01765959,0.01698063,-0.00234878,0
 .03718007,-0.02847440,-0.00781563\\\@


 SIGN SEEN IN A RESTAURANT-
 WE RESERVE THE RIGHT TO SERVE REFUSE TO ANYONE.
 Job cpu time:       0 days  0 hours  0 minutes  0.3 seconds.
 File lengths (MBytes):  RWF=      5 Int=      0 D2E=      0 Chk=      2 Scr=      1
 Normal termination of Gaussian 09 at Sun Apr 10 09:58:31 2016.
