 Entering Gaussian System, Link 0=g09
 Input=best.com
 Output=best.log
 Initial command:
 /opt/g09/g09/l1.exe "/opt/g09/scratch/Gau-6309.inp" -scrdir="/opt/g09/scratch/"
 Entering Link 1 = /opt/g09/g09/l1.exe PID=      6310.
  
 Copyright (c) 1988,1990,1992,1993,1995,1998,2003,2009,2013,
            Gaussian, Inc.  All Rights Reserved.
  
 This is part of the Gaussian(R) 09 program.  It is based on
 the Gaussian(R) 03 system (copyright 2003, Gaussian, Inc.),
 the Gaussian(R) 98 system (copyright 1998, Gaussian, Inc.),
 the Gaussian(R) 94 system (copyright 1995, Gaussian, Inc.),
 the Gaussian 92(TM) system (copyright 1992, Gaussian, Inc.),
 the Gaussian 90(TM) system (copyright 1990, Gaussian, Inc.),
 the Gaussian 88(TM) system (copyright 1988, Gaussian, Inc.),
 the Gaussian 86(TM) system (copyright 1986, Carnegie Mellon
 University), and the Gaussian 82(TM) system (copyright 1983,
 Carnegie Mellon University). Gaussian is a federally registered
 trademark of Gaussian, Inc.
  
 This software contains proprietary and confidential information,
 including trade secrets, belonging to Gaussian, Inc.
  
 This software is provided under written license and may be
 used, copied, transmitted, or stored only in accord with that
 written license.
  
 The following legend is applicable only to US Government
 contracts under FAR:
  
                    RESTRICTED RIGHTS LEGEND
  
 Use, reproduction and disclosure by the US Government is
 subject to restrictions as set forth in subparagraphs (a)
 and (c) of the Commercial Computer Software - Restricted
 Rights clause in FAR 52.227-19.
  
 Gaussian, Inc.
 340 Quinnipiac St., Bldg. 40, Wallingford CT 06492
  
  
 ---------------------------------------------------------------
 Warning -- This program may not be used in any manner that
 competes with the business of Gaussian, Inc. or will provide
 assistance to any competitor of Gaussian, Inc.  The licensee
 of this program is prohibited from giving any competitor of
 Gaussian, Inc. access to this program.  By using this program,
 the user acknowledges that Gaussian, Inc. is engaged in the
 business of creating and licensing software in the field of
 computational chemistry and represents and warrants to the
 licensee that it is not a competitor of Gaussian, Inc. and that
 it will not use this program in any manner prohibited above.
 ---------------------------------------------------------------
  

 Cite this work as:
 Gaussian 09, Revision D.01,
 M. J. Frisch, G. W. Trucks, H. B. Schlegel, G. E. Scuseria, 
 M. A. Robb, J. R. Cheeseman, G. Scalmani, V. Barone, B. Mennucci, 
 G. A. Petersson, H. Nakatsuji, M. Caricato, X. Li, H. P. Hratchian, 
 A. F. Izmaylov, J. Bloino, G. Zheng, J. L. Sonnenberg, M. Hada, 
 M. Ehara, K. Toyota, R. Fukuda, J. Hasegawa, M. Ishida, T. Nakajima, 
 Y. Honda, O. Kitao, H. Nakai, T. Vreven, J. A. Montgomery, Jr., 
 J. E. Peralta, F. Ogliaro, M. Bearpark, J. J. Heyd, E. Brothers, 
 K. N. Kudin, V. N. Staroverov, T. Keith, R. Kobayashi, J. Normand, 
 K. Raghavachari, A. Rendell, J. C. Burant, S. S. Iyengar, J. Tomasi, 
 M. Cossi, N. Rega, J. M. Millam, M. Klene, J. E. Knox, J. B. Cross, 
 V. Bakken, C. Adamo, J. Jaramillo, R. Gomperts, R. E. Stratmann, 
 O. Yazyev, A. J. Austin, R. Cammi, C. Pomelli, J. W. Ochterski, 
 R. L. Martin, K. Morokuma, V. G. Zakrzewski, G. A. Voth, 
 P. Salvador, J. J. Dannenberg, S. Dapprich, A. D. Daniels, 
 O. Farkas, J. B. Foresman, J. V. Ortiz, J. Cioslowski, 
 and D. J. Fox, Gaussian, Inc., Wallingford CT, 2013.
 
 ******************************************
 Gaussian 09:  ES64L-G09RevD.01 24-Apr-2013
                23-Mar-2016 
 ******************************************
 -----------------------
 #P AM1(Input,Print) opt
 -----------------------
 1/14=-1,18=20,19=15,26=1,38=1/1,3;
 2/9=110,12=2,17=6,18=5,40=1/2;
 3/5=2,16=1,25=1,41=700000,71=1,135=100,136=1/1,2,3;
 4/35=1/1;
 5/5=2,35=1,38=5/2;
 6/7=2,8=2,9=2,10=2,28=1/1;
 7//1,2,3,16;
 1/14=-1,18=20,19=15,26=1/3(2);
 2/9=110/2;
 99//99;
 2/9=110/2;
 3/5=2,16=1,25=1,41=700000,71=1,135=20,136=1/1,2,3;
 4/5=5,16=3,35=1/1;
 5/5=2,35=1,38=5/2;
 7//1,2,3,16;
 1/14=-1,18=20,19=15,26=1/3(-5);
 2/9=110/2;
 6/7=2,8=2,9=2,10=2,19=2,28=1/1;
 99/9=1/99;
 Leave Link    1 at Wed Mar 23 16:29:23 2016, MaxMem=           0 cpu:         0.0
 (Enter /opt/g09/g09/l101.exe)
 ----
 best
 ----
 Symbolic Z-matrix:
 Charge =  0 Multiplicity = 1
 6                     0.87463  -0.65493   0.02387 
 6                    -0.42831  -1.23244  -0.01182 
 6                    -0.31707   1.28529   0.1176 
 6                     0.88939   0.74023  -0.00681 
 1                     1.78636   1.32657  -0.00296 
 1                    -0.56922   2.32329   0.20463 
 1                    -0.60665  -2.28191   0.11414 
 1                     1.82324  -1.18885  -0.04678 
 16                   -1.57874   0.03828  -0.11667 
 
 NAtoms=      9 NQM=        9 NQMF=       0 NMMI=      0 NMMIF=      0
                NMic=       0 NMicF=      0.
                    Isotopes and Nuclear Properties:
 (Nuclear quadrupole moments (NQMom) in fm**2, nuclear magnetic moments (NMagM)
  in nuclear magnetons)

  Atom         1           2           3           4           5           6           7           8           9
 IAtWgt=          12          12          12          12           1           1           1           1          32
 AtmWgt=  12.0000000  12.0000000  12.0000000  12.0000000   1.0078250   1.0078250   1.0078250   1.0078250  31.9720718
 NucSpn=           0           0           0           0           1           1           1           1           0
 AtZEff=   0.0000000   0.0000000   0.0000000   0.0000000   0.0000000   0.0000000   0.0000000   0.0000000   0.0000000
 NQMom=    0.0000000   0.0000000   0.0000000   0.0000000   0.0000000   0.0000000   0.0000000   0.0000000   0.0000000
 NMagM=    0.0000000   0.0000000   0.0000000   0.0000000   2.7928460   2.7928460   2.7928460   2.7928460   0.0000000
 AtZNuc=   6.0000000   6.0000000   6.0000000   6.0000000   1.0000000   1.0000000   1.0000000   1.0000000  16.0000000
 Leave Link  101 at Wed Mar 23 16:29:23 2016, MaxMem=    33554432 cpu:         0.0
 (Enter /opt/g09/g09/l103.exe)

 GradGradGradGradGradGradGradGradGradGradGradGradGradGradGradGradGradGrad
 Berny optimization.
 Initialization pass.
                           ----------------------------
                           !    Initial Parameters    !
                           ! (Angstroms and Degrees)  !
 --------------------------                            --------------------------
 ! Name  Definition              Value          Derivative Info.                !
 --------------------------------------------------------------------------------
 ! R1    R(1,2)                  1.4256         estimate D2E/DX2                !
 ! R2    R(1,4)                  1.3956         estimate D2E/DX2                !
 ! R3    R(1,8)                  1.0908         estimate D2E/DX2                !
 ! R4    R(2,7)                  1.0719         estimate D2E/DX2                !
 ! R5    R(2,9)                  1.7173         estimate D2E/DX2                !
 ! R6    R(3,4)                  1.3297         estimate D2E/DX2                !
 ! R7    R(3,6)                  1.0717         estimate D2E/DX2                !
 ! R8    R(3,9)                  1.7893         estimate D2E/DX2                !
 ! R9    R(4,5)                  1.0716         estimate D2E/DX2                !
 ! A1    A(2,1,4)              114.4612         estimate D2E/DX2                !
 ! A2    A(2,1,8)              126.5038         estimate D2E/DX2                !
 ! A3    A(4,1,8)              118.6006         estimate D2E/DX2                !
 ! A4    A(1,2,7)              123.0727         estimate D2E/DX2                !
 ! A5    A(1,2,9)              108.3023         estimate D2E/DX2                !
 ! A6    A(7,2,9)              128.3273         estimate D2E/DX2                !
 ! A7    A(4,3,6)              128.1754         estimate D2E/DX2                !
 ! A8    A(4,3,9)              109.9887         estimate D2E/DX2                !
 ! A9    A(6,3,9)              121.3135         estimate D2E/DX2                !
 ! A10   A(1,4,3)              113.4618         estimate D2E/DX2                !
 ! A11   A(1,4,5)              123.7632         estimate D2E/DX2                !
 ! A12   A(3,4,5)              122.332          estimate D2E/DX2                !
 ! A13   A(2,9,3)               92.0247         estimate D2E/DX2                !
 ! D1    D(4,1,2,7)           -173.0289         estimate D2E/DX2                !
 ! D2    D(4,1,2,9)              1.1751         estimate D2E/DX2                !
 ! D3    D(8,1,2,7)             14.6975         estimate D2E/DX2                !
 ! D4    D(8,1,2,9)           -171.0985         estimate D2E/DX2                !
 ! D5    D(2,1,4,3)              8.5555         estimate D2E/DX2                !
 ! D6    D(2,1,4,5)           -178.9402         estimate D2E/DX2                !
 ! D7    D(8,1,4,3)           -178.5147         estimate D2E/DX2                !
 ! D8    D(8,1,4,5)             -6.0104         estimate D2E/DX2                !
 ! D9    D(1,2,9,3)             -7.3124         estimate D2E/DX2                !
 ! D10   D(7,2,9,3)            166.4949         estimate D2E/DX2                !
 ! D11   D(6,3,4,1)            174.5701         estimate D2E/DX2                !
 ! D12   D(6,3,4,5)              1.9443         estimate D2E/DX2                !
 ! D13   D(9,3,4,1)            -13.746          estimate D2E/DX2                !
 ! D14   D(9,3,4,5)            173.6282         estimate D2E/DX2                !
 ! D15   D(4,3,9,2)             12.3387         estimate D2E/DX2                !
 ! D16   D(6,3,9,2)           -175.3092         estimate D2E/DX2                !
 --------------------------------------------------------------------------------
 Trust Radius=3.00D-01 FncErr=1.00D-07 GrdErr=1.00D-07
 Number of steps in this run=     48 maximum allowed number of steps=    100.
 GradGradGradGradGradGradGradGradGradGradGradGradGradGradGradGradGradGrad

 Leave Link  103 at Wed Mar 23 16:29:23 2016, MaxMem=    33554432 cpu:         0.0
 (Enter /opt/g09/g09/l202.exe)
                          Input orientation:                          
 ---------------------------------------------------------------------
 Center     Atomic      Atomic             Coordinates (Angstroms)
 Number     Number       Type             X           Y           Z
 ---------------------------------------------------------------------
      1          6           0        0.874634   -0.654928    0.023867
      2          6           0       -0.428309   -1.232437   -0.011824
      3          6           0       -0.317074    1.285286    0.117600
      4          6           0        0.889386    0.740231   -0.006814
      5          1           0        1.786356    1.326574   -0.002963
      6          1           0       -0.569221    2.323294    0.204625
      7          1           0       -0.606647   -2.281913    0.114140
      8          1           0        1.823237   -1.188848   -0.046778
      9         16           0       -1.578742    0.038282   -0.116668
 ---------------------------------------------------------------------
                    Distance matrix (angstroms):
                    1          2          3          4          5
     1  C    0.000000
     2  C    1.425641   0.000000
     3  C    2.278900   2.523500   0.000000
     4  C    1.395574   2.372291   1.329703   0.000000
     5  H    2.181354   3.384281   2.107287   1.071619   0.000000
     6  H    3.314694   3.565099   1.071733   2.162945   2.566181
     7  H    2.202141   1.071947   3.578935   3.374329   4.331438
     8  H    1.090829   2.252239   3.275560   2.143600   2.516074
     9  S    2.553301   1.717328   1.789331   2.568357   3.605067
                    6          7          8          9
     6  H    0.000000
     7  H    4.606248   0.000000
     8  H    4.257018   2.669274   0.000000
     9  S    2.518659   2.526172   3.617208   0.000000
 Stoichiometry    C4H4S
 Framework group  C1[X(C4H4S)]
 Deg. of freedom    21
 Full point group                 C1      NOp   1
 Largest Abelian subgroup         C1      NOp   1
 Largest concise Abelian subgroup C1      NOp   1
                         Standard orientation:                         
 ---------------------------------------------------------------------
 Center     Atomic      Atomic             Coordinates (Angstroms)
 Number     Number       Type             X           Y           Z
 ---------------------------------------------------------------------
      1          6           0       -1.188453    0.801064    0.008566
      2          6           0        0.161103    1.259175    0.044387
      3          6           0       -0.180060   -1.240533    0.100278
      4          6           0       -1.326239   -0.585962   -0.060725
      5          1           0       -2.271209   -1.088803   -0.111221
      6          1           0       -0.025717   -2.298820    0.169689
      7          1           0        0.426518    2.285027    0.206415
      8          1           0       -2.081482    1.420000   -0.088011
      9         16           0        1.197112   -0.107492   -0.045744
 ---------------------------------------------------------------------
 Rotational constants (GHZ):      7.9171192      5.3478445      3.2058171
 Leave Link  202 at Wed Mar 23 16:29:23 2016, MaxMem=    33554432 cpu:         0.0
 (Enter /opt/g09/g09/l301.exe)

 Semi-emprical parameters in input format:
 Method=8 CoreType=1 PeptideFC=0.0114505045 RIJScale=0.5291772086
 ****
 H       
 PQN=1 NValence=1 F0ss=0.4721553327 ZetaOverlap=1.1880780000 U=-0.3969075184
 Beta=-0.2268825074 CoreKO=1.0589197790 KON=0,0,0,1.0589197790 KON=1,0,1,1.0589197790
 KON=0,1,1,1.0589197790 KON=2,1,1,1.0589197790 EISol=-0.4188110042 EHeat=0.0830298228
 Alpha=1.5252601686
 GCore=0.0076202981,1.4001425905,2.2676713595
 GCore=0.0003534810,1.4001425905,3.4015070392
 GCore=-0.0012733648,0.5600570362,4.0533982428
 ****
 C       
 PQN=2,2 NValence=4 F0ss=0.4494442496 F0sp=0.4215147623 F0pp=0.3768030831 F2pp=0.1898715146
 G1sp=0.2679025821
 ZetaOverlap=1.8086650000,1.6851160000
 U=-1.9237066217,-1.4557965594
 Beta=-0.5775444233,-0.2836784428 DDN=0,1,0.8236736000 DDN=1,1,0.7242431475
 CoreKO=1.1124284736 KON=0,0,0,1.1124284736 KON=1,0,1,0.8219701441 KON=0,1,1,1.1124284736
 KON=2,1,1,0.7783928119 EISol=-4.4398989268 EHeat=0.2723305520 Alpha=1.4014062429
 DipHyp=1.6472524267
 GCore=0.0007885612,1.4001425905,3.0235618126
 GCore=0.0031892455,1.4001425905,3.4959933458
 GCore=-0.0013931594,1.4001425905,3.8739385724
 GCore=-0.0000875022,1.4001425905,5.0077742521
 ****
 S       
 PQN=3,3 NValence=6 F0ss=0.4331396397 F0sp=0.3183640731 F0pp=0.3136271218 F2pp=0.3791170965
 G1sp=0.2791629797
 ZetaOverlap=2.3665150000,1.6672630000,1.0000000000
 U=-2.0834683120,-1.7903186861
 Beta=-0.1440781557,-0.2905136336 DDN=0,1,0.8587275484 DDN=1,1,1.0036329000
 CoreKO=1.1543033468 KON=0,0,0,1.1543033468 KON=1,0,1,0.8464368816 KON=0,1,1,1.1543033468
 KON=2,1,1,0.7746001785 EISol=-7.0460287497 EHeat=0.1058151363 Alpha=1.2911422608
 DipHyp=1.7173562901
 GCore=-0.0353616377,1.2863644833,1.4563457902
 GCore=-0.0008238398,1.6425719595,2.8408498620
 GCore=0.0008565489,3.7602184278,3.7967867236
 ****
 
 Standard basis: VSTO-6G (5D, 7F)
 Ernie: Thresh=  0.10000D-02 Tol=  0.10000D-05 Strict=F.
  NNHCO=     0 NNPyr=     0 NCTC=     0               EPep=         0.000000000
    EC=        63.402190851  ECS=         1.654313831   EG=         0.138813383
   EHC=         0.000000000  EAt=       -26.480868474  AtH=         1.527256636
 EPDDG=         0.000000000  ECC=        65.195318066 EAtT=        28.008125109
 There are    24 symmetry adapted cartesian basis functions of A   symmetry.
 There are    24 symmetry adapted basis functions of A   symmetry.
    24 basis functions,   144 primitive gaussians,    24 cartesian basis functions
    13 alpha electrons       13 beta electrons
       nuclear repulsion energy        93.2034431748 Hartrees.
 IExCor=    0 DFT=F Ex=HF Corr=None ExCW=0 ScaHFX=  1.000000
 ScaDFX=  1.000000  1.000000  1.000000  1.000000 ScalE2=  1.000000  1.000000
 IRadAn=      0 IRanWt=     -1 IRanGd=            0 ICorTp=0 IEmpDi=  4
 Integral buffers will be    131072 words long.
 Regular integral format.
 Two-electron integral symmetry is turned off.
 Leave Link  301 at Wed Mar 23 16:29:23 2016, MaxMem=    33554432 cpu:         0.0
 (Enter /opt/g09/g09/l302.exe)
 Do NDO integrals.
 NPDir=0 NMtPBC=     1 NCelOv=     1 NCel=       1 NClECP=     1 NCelD=      1
         NCelK=      1 NCelE2=     1 NClLst=     1 CellRange=     0.0.
 One-electron integrals computed using PRISM.
 NBasis=    24 RedAO= F EigKep=  0.00D+00  NBF=    24
 NBsUse=    24 1.00D-04 EigRej=  0.00D+00 NBFU=    24
 Leave Link  302 at Wed Mar 23 16:29:23 2016, MaxMem=    33554432 cpu:         0.0
 (Enter /opt/g09/g09/l303.exe)
 DipDrv:  MaxL=1.
 Leave Link  303 at Wed Mar 23 16:29:23 2016, MaxMem=    33554432 cpu:         0.0
 (Enter /opt/g09/g09/l401.exe)
 Simple Huckel Guess.
 JPrj=0 DoOrth=F DoCkMO=F.
 Leave Link  401 at Wed Mar 23 16:29:23 2016, MaxMem=    33554432 cpu:         0.0
 (Enter /opt/g09/g09/l502.exe)
 Closed shell SCF:
 Using DIIS extrapolation, IDIIS=  1040.
 Overlap will be assumed to be unity.
 Two-electron integral symmetry not used.
 Keep J ints in memory in canonical form, NReq=888082.
 IVT=       79475 IEndB=       79475 NGot=    33554432 MDV=    33473473
 LenX=    33473473 LenY=    33472456
 Requested convergence on RMS density matrix=1.00D-08 within 128 cycles.
 Requested convergence on MAX density matrix=1.00D-06.
 Requested convergence on             energy=1.00D-06.
 No special actions if energy rises.
 FoFCou: FMM=F IPFlag=           0 FMFlag=           0 FMFlg1=           0
         NFxFlg=           0 DoJE=F BraDBF=F KetDBF=F FulRan=T
         wScrn=  0.000000 ICntrl=     600 IOpCl=  2 I1Cent=           0 NGrid=           0
         NMat0=    1 NMatS0=     54 NMatT0=    0 NMatD0=    1 NMtDS0=    0 NMtDT0=    0
 Symmetry not used in FoFCou.

 Cycle   1  Pass 1  IDiag  1:
 E= 0.280850226250720    
 DIIS: error= 4.43D-02 at cycle   1 NSaved=   1.
 NSaved= 1 IEnMin= 1 EnMin= 0.280850226250720     IErMin= 1 ErrMin= 4.43D-02
 ErrMax= 4.43D-02  0.00D+00 EMaxC= 1.00D-01 BMatC= 7.02D-02 BMatP= 7.02D-02
 IDIUse=3 WtCom= 5.57D-01 WtEn= 4.43D-01
 Coeff-Com:  0.100D+01
 Coeff-En:   0.100D+01
 Coeff:      0.100D+01
 GapD=    2.000 DampG=2.000 DampE=0.500 DampFc=1.0000 IDamp=-1.
 RMSDP=1.81D-02 MaxDP=1.19D-01              OVMax= 0.00D+00

 Cycle   2  Pass 1  IDiag  1:
 E= 0.854891712719166E-01 Delta-E=       -0.195361054979 Rises=F Damp=F
 DIIS: error= 1.25D-02 at cycle   2 NSaved=   2.
 NSaved= 2 IEnMin= 2 EnMin= 0.854891712719166E-01 IErMin= 2 ErrMin= 1.25D-02
 ErrMax= 1.25D-02  0.00D+00 EMaxC= 1.00D-01 BMatC= 5.60D-03 BMatP= 7.02D-02
 IDIUse=3 WtCom= 8.75D-01 WtEn= 1.25D-01
 Coeff-Com: -0.358D+00 0.136D+01
 Coeff-En:   0.000D+00 0.100D+01
 Coeff:     -0.313D+00 0.131D+01
 RMSDP=7.36D-03 MaxDP=5.97D-02 DE=-1.95D-01 OVMax= 0.00D+00

 Cycle   3  Pass 1  IDiag  3:
 E= 0.660813654482126E-01 Delta-E=       -0.019407805824 Rises=F Damp=F
 DIIS: error= 1.54D-03 at cycle   3 NSaved=   3.
 NSaved= 3 IEnMin= 3 EnMin= 0.660813654482126E-01 IErMin= 3 ErrMin= 1.54D-03
 ErrMax= 1.54D-03  0.00D+00 EMaxC= 1.00D-01 BMatC= 1.10D-04 BMatP= 5.60D-03
 IDIUse=3 WtCom= 9.85D-01 WtEn= 1.54D-02
 Coeff-Com:  0.119D+00-0.517D+00 0.140D+01
 Coeff-En:   0.000D+00 0.000D+00 0.100D+01
 Coeff:      0.117D+00-0.510D+00 0.139D+01
 Gap=     0.335 Goal=   None    Shift=    0.000
 RMSDP=1.73D-03 MaxDP=1.43D-02 DE=-1.94D-02 OVMax= 1.58D-02

 Cycle   4  Pass 1  IDiag  3:
 E= 0.653585191142696E-01 Delta-E=       -0.000722846334 Rises=F Damp=F
 DIIS: error= 4.89D-04 at cycle   4 NSaved=   4.
 NSaved= 4 IEnMin= 4 EnMin= 0.653585191142696E-01 IErMin= 4 ErrMin= 4.89D-04
 ErrMax= 4.89D-04  0.00D+00 EMaxC= 1.00D-01 BMatC= 7.25D-06 BMatP= 1.10D-04
 IDIUse=3 WtCom= 9.95D-01 WtEn= 4.89D-03
 Coeff-Com: -0.653D-02 0.338D-01-0.310D+00 0.128D+01
 Coeff-En:   0.000D+00 0.000D+00 0.000D+00 0.100D+01
 Coeff:     -0.650D-02 0.336D-01-0.308D+00 0.128D+01
 Gap=     0.336 Goal=   None    Shift=    0.000
 RMSDP=5.77D-04 MaxDP=4.34D-03 DE=-7.23D-04 OVMax= 5.40D-03

 Cycle   5  Pass 1  IDiag  3:
 E= 0.652906700202607E-01 Delta-E=       -0.000067849094 Rises=F Damp=F
 DIIS: error= 2.67D-04 at cycle   5 NSaved=   5.
 NSaved= 5 IEnMin= 5 EnMin= 0.652906700202607E-01 IErMin= 5 ErrMin= 2.67D-04
 ErrMax= 2.67D-04  0.00D+00 EMaxC= 1.00D-01 BMatC= 1.07D-06 BMatP= 7.25D-06
 IDIUse=3 WtCom= 9.97D-01 WtEn= 2.67D-03
 Coeff-Com: -0.253D-02 0.843D-02 0.124D+00-0.923D+00 0.179D+01
 Coeff-En:   0.000D+00 0.000D+00 0.000D+00 0.000D+00 0.100D+01
 Coeff:     -0.253D-02 0.840D-02 0.123D+00-0.921D+00 0.179D+01
 Gap=     0.336 Goal=   None    Shift=    0.000
 RMSDP=3.17D-04 MaxDP=2.65D-03 DE=-6.78D-05 OVMax= 3.32D-03

 Cycle   6  Pass 1  IDiag  3:
 E= 0.652775192089621E-01 Delta-E=       -0.000013150811 Rises=F Damp=F
 DIIS: error= 7.11D-05 at cycle   6 NSaved=   6.
 NSaved= 6 IEnMin= 6 EnMin= 0.652775192089621E-01 IErMin= 6 ErrMin= 7.11D-05
 ErrMax= 7.11D-05  0.00D+00 EMaxC= 1.00D-01 BMatC= 7.35D-08 BMatP= 1.07D-06
 IDIUse=1 WtCom= 1.00D+00 WtEn= 0.00D+00
 Coeff-Com:  0.123D-02-0.468D-02-0.509D-01 0.431D+00-0.106D+01 0.168D+01
 Coeff:      0.123D-02-0.468D-02-0.509D-01 0.431D+00-0.106D+01 0.168D+01
 Gap=     0.336 Goal=   None    Shift=    0.000
 RMSDP=9.05D-05 MaxDP=8.00D-04 DE=-1.32D-05 OVMax= 9.37D-04

 Cycle   7  Pass 1  IDiag  3:
 E= 0.652766968142231E-01 Delta-E=       -0.000000822395 Rises=F Damp=F
 DIIS: error= 4.79D-06 at cycle   7 NSaved=   7.
 NSaved= 7 IEnMin= 7 EnMin= 0.652766968142231E-01 IErMin= 7 ErrMin= 4.79D-06
 ErrMax= 4.79D-06  0.00D+00 EMaxC= 1.00D-01 BMatC= 1.19D-09 BMatP= 7.35D-08
 IDIUse=1 WtCom= 1.00D+00 WtEn= 0.00D+00
 Coeff-Com: -0.373D-03 0.141D-02 0.129D-01-0.113D+00 0.283D+00-0.506D+00
 Coeff-Com:  0.132D+01
 Coeff:     -0.373D-03 0.141D-02 0.129D-01-0.113D+00 0.283D+00-0.506D+00
 Coeff:      0.132D+01
 Gap=     0.336 Goal=   None    Shift=    0.000
 RMSDP=6.49D-06 MaxDP=4.56D-05 DE=-8.22D-07 OVMax= 6.83D-05

 Cycle   8  Pass 1  IDiag  3:
 E= 0.652766887990595E-01 Delta-E=       -0.000000008015 Rises=F Damp=F
 DIIS: error= 1.21D-06 at cycle   8 NSaved=   8.
 NSaved= 8 IEnMin= 8 EnMin= 0.652766887990595E-01 IErMin= 8 ErrMin= 1.21D-06
 ErrMax= 1.21D-06  0.00D+00 EMaxC= 1.00D-01 BMatC= 8.54D-11 BMatP= 1.19D-09
 IDIUse=1 WtCom= 1.00D+00 WtEn= 0.00D+00
 Coeff-Com:  0.846D-04-0.305D-03-0.221D-02 0.199D-01-0.503D-01 0.962D-01
 Coeff-Com: -0.480D+00 0.142D+01
 Coeff:      0.846D-04-0.305D-03-0.221D-02 0.199D-01-0.503D-01 0.962D-01
 Coeff:     -0.480D+00 0.142D+01
 Gap=     0.336 Goal=   None    Shift=    0.000
 RMSDP=1.84D-06 MaxDP=1.21D-05 DE=-8.02D-09 OVMax= 1.76D-05

 Cycle   9  Pass 1  IDiag  3:
 E= 0.652766881629958E-01 Delta-E=       -0.000000000636 Rises=F Damp=F
 DIIS: error= 4.07D-07 at cycle   9 NSaved=   9.
 NSaved= 9 IEnMin= 9 EnMin= 0.652766881629958E-01 IErMin= 9 ErrMin= 4.07D-07
 ErrMax= 4.07D-07  0.00D+00 EMaxC= 1.00D-01 BMatC= 5.39D-12 BMatP= 8.54D-11
 IDIUse=1 WtCom= 1.00D+00 WtEn= 0.00D+00
 Coeff-Com: -0.183D-04 0.549D-04 0.663D-03-0.530D-02 0.129D-01-0.250D-01
 Coeff-Com:  0.172D+00-0.663D+00 0.151D+01
 Coeff:     -0.183D-04 0.549D-04 0.663D-03-0.530D-02 0.129D-01-0.250D-01
 Coeff:      0.172D+00-0.663D+00 0.151D+01
 Gap=     0.336 Goal=   None    Shift=    0.000
 RMSDP=5.29D-07 MaxDP=4.39D-06 DE=-6.36D-10 OVMax= 4.62D-06

 Cycle  10  Pass 1  IDiag  3:
 E= 0.652766881114530E-01 Delta-E=       -0.000000000052 Rises=F Damp=F
 DIIS: error= 1.27D-07 at cycle  10 NSaved=  10.
 NSaved=10 IEnMin=10 EnMin= 0.652766881114530E-01 IErMin=10 ErrMin= 1.27D-07
 ErrMax= 1.27D-07  0.00D+00 EMaxC= 1.00D-01 BMatC= 5.84D-13 BMatP= 5.39D-12
 IDIUse=1 WtCom= 1.00D+00 WtEn= 0.00D+00
 Coeff-Com: -0.448D-05 0.229D-04 0.551D-04-0.805D-03 0.226D-02-0.362D-02
 Coeff-Com: -0.218D-01 0.150D+00-0.707D+00 0.158D+01
 Coeff:     -0.448D-05 0.229D-04 0.551D-04-0.805D-03 0.226D-02-0.362D-02
 Coeff:     -0.218D-01 0.150D+00-0.707D+00 0.158D+01
 Gap=     0.336 Goal=   None    Shift=    0.000
 RMSDP=2.21D-07 MaxDP=1.89D-06 DE=-5.15D-11 OVMax= 1.92D-06

 Cycle  11  Pass 1  IDiag  3:
 E= 0.652766881054703E-01 Delta-E=       -0.000000000006 Rises=F Damp=F
 DIIS: error= 3.02D-08 at cycle  11 NSaved=  11.
 NSaved=11 IEnMin=11 EnMin= 0.652766881054703E-01 IErMin=11 ErrMin= 3.02D-08
 ErrMax= 3.02D-08  0.00D+00 EMaxC= 1.00D-01 BMatC= 3.03D-14 BMatP= 5.84D-13
 IDIUse=1 WtCom= 1.00D+00 WtEn= 0.00D+00
 Coeff-Com:  0.207D-05-0.935D-05-0.374D-04 0.419D-03-0.112D-02 0.194D-02
 Coeff-Com:  0.189D-02-0.272D-01 0.202D+00-0.629D+00 0.145D+01
 Coeff:      0.207D-05-0.935D-05-0.374D-04 0.419D-03-0.112D-02 0.194D-02
 Coeff:      0.189D-02-0.272D-01 0.202D+00-0.629D+00 0.145D+01
 Gap=     0.336 Goal=   None    Shift=    0.000
 RMSDP=4.24D-08 MaxDP=3.59D-07 DE=-5.98D-12 OVMax= 3.33D-07

 Cycle  12  Pass 1  IDiag  3:
 E= 0.652766881050582E-01 Delta-E=        0.000000000000 Rises=F Damp=F
 DIIS: error= 7.44D-09 at cycle  12 NSaved=  12.
 NSaved=12 IEnMin=12 EnMin= 0.652766881050582E-01 IErMin=12 ErrMin= 7.44D-09
 ErrMax= 7.44D-09  0.00D+00 EMaxC= 1.00D-01 BMatC= 3.04D-15 BMatP= 3.03D-14
 IDIUse=1 WtCom= 1.00D+00 WtEn= 0.00D+00
 Coeff-Com: -0.512D-06 0.214D-05 0.175D-04-0.157D-03 0.398D-03-0.702D-03
 Coeff-Com:  0.651D-03 0.257D-02-0.523D-01 0.200D+00-0.722D+00 0.157D+01
 Coeff:     -0.512D-06 0.214D-05 0.175D-04-0.157D-03 0.398D-03-0.702D-03
 Coeff:      0.651D-03 0.257D-02-0.523D-01 0.200D+00-0.722D+00 0.157D+01
 Gap=     0.336 Goal=   None    Shift=    0.000
 RMSDP=1.52D-08 MaxDP=9.96D-08 DE=-4.12D-13 OVMax= 1.35D-07

 Cycle  13  Pass 1  IDiag  3:
 E= 0.652766881049445E-01 Delta-E=        0.000000000000 Rises=F Damp=F
 DIIS: error= 2.93D-09 at cycle  13 NSaved=  13.
 NSaved=13 IEnMin=13 EnMin= 0.652766881049445E-01 IErMin=13 ErrMin= 2.93D-09
 ErrMax= 2.93D-09  0.00D+00 EMaxC= 1.00D-01 BMatC= 3.00D-16 BMatP= 3.04D-15
 IDIUse=1 WtCom= 1.00D+00 WtEn= 0.00D+00
 Coeff-Com:  0.576D-07-0.133D-06-0.555D-05 0.401D-04-0.943D-04 0.174D-03
 Coeff-Com: -0.705D-03 0.213D-02 0.578D-02-0.377D-01 0.219D+00-0.794D+00
 Coeff-Com:  0.161D+01
 Coeff:      0.576D-07-0.133D-06-0.555D-05 0.401D-04-0.943D-04 0.174D-03
 Coeff:     -0.705D-03 0.213D-02 0.578D-02-0.377D-01 0.219D+00-0.794D+00
 Coeff:      0.161D+01
 Gap=     0.336 Goal=   None    Shift=    0.000
 RMSDP=5.15D-09 MaxDP=3.13D-08 DE=-1.14D-13 OVMax= 5.82D-08

 Cycle  14  Pass 2  IDiag  1:
 SCF Done:  E(RAM1) =  0.652766881049E-01 A.U. after   14 cycles
            NFock= 13  Conv=0.51D-08     -V/T= 1.0045
 KE=-1.445868835526D+01 PE=-1.548955567550D+02 EE= 7.621607862358D+01
 Leave Link  502 at Wed Mar 23 16:29:23 2016, MaxMem=    33554432 cpu:         0.0
 (Enter /opt/g09/g09/l601.exe)
 Copying SCF densities to generalized density rwf, IOpCl= 0 IROHF=0.

 **********************************************************************

            Population analysis using the SCF density.

 **********************************************************************

 Orbital symmetries:
       Occupied  (A) (A) (A) (A) (A) (A) (A) (A) (A) (A) (A) (A)
                 (A)
       Virtual   (A) (A) (A) (A) (A) (A) (A) (A) (A) (A) (A)
 The electronic state is 1-A.
 Alpha  occ. eigenvalues --   -1.38894  -1.09631  -0.91445  -0.73895  -0.66901
 Alpha  occ. eigenvalues --   -0.59278  -0.50367  -0.49644  -0.47912  -0.47650
 Alpha  occ. eigenvalues --   -0.42382  -0.35049  -0.33057
 Alpha virt. eigenvalues --    0.00569   0.03239   0.04472   0.07265   0.15986
 Alpha virt. eigenvalues --    0.16773   0.17576   0.18610   0.19118   0.20478
 Alpha virt. eigenvalues --    0.21332
          Condensed to atoms (all electrons):
               1          2          3          4          5          6
     1  C    4.223695   0.000000   0.000000   0.000000   0.000000   0.000000
     2  C    0.000000   4.380350   0.000000   0.000000   0.000000   0.000000
     3  C    0.000000   0.000000   4.353181   0.000000   0.000000   0.000000
     4  C    0.000000   0.000000   0.000000   4.194669   0.000000   0.000000
     5  H    0.000000   0.000000   0.000000   0.000000   0.797617   0.000000
     6  H    0.000000   0.000000   0.000000   0.000000   0.000000   0.783154
     7  H    0.000000   0.000000   0.000000   0.000000   0.000000   0.000000
     8  H    0.000000   0.000000   0.000000   0.000000   0.000000   0.000000
     9  S    0.000000   0.000000   0.000000   0.000000   0.000000   0.000000
               7          8          9
     1  C    0.000000   0.000000   0.000000
     2  C    0.000000   0.000000   0.000000
     3  C    0.000000   0.000000   0.000000
     4  C    0.000000   0.000000   0.000000
     5  H    0.000000   0.000000   0.000000
     6  H    0.000000   0.000000   0.000000
     7  H    0.774070   0.000000   0.000000
     8  H    0.000000   0.798561   0.000000
     9  S    0.000000   0.000000   5.694703
 Mulliken charges:
               1
     1  C   -0.223695
     2  C   -0.380350
     3  C   -0.353181
     4  C   -0.194669
     5  H    0.202383
     6  H    0.216846
     7  H    0.225930
     8  H    0.201439
     9  S    0.305297
 Sum of Mulliken charges =   0.00000
 Mulliken charges with hydrogens summed into heavy atoms:
               1
     1  C   -0.022256
     2  C   -0.154420
     3  C   -0.136336
     4  C    0.007715
     9  S    0.305297
 Charge=              0.0000 electrons
 Dipole moment (field-independent basis, Debye):
    X=             -0.7710    Y=             -0.0622    Z=              0.0046  Tot=              0.7735
 N-N= 9.320344317476D+01 E-N=-1.548955567467D+02  KE=-1.445868835526D+01
 Leave Link  601 at Wed Mar 23 16:29:23 2016, MaxMem=    33554432 cpu:         0.0
 (Enter /opt/g09/g09/l701.exe)
 Compute integral first derivatives.
 ... and contract with generalized density number  0.
 Leave Link  701 at Wed Mar 23 16:29:23 2016, MaxMem=    33554432 cpu:         0.0
 (Enter /opt/g09/g09/l702.exe)
 L702 exits ... SP integral derivatives will be done elsewhere.
 Leave Link  702 at Wed Mar 23 16:29:23 2016, MaxMem=    33554432 cpu:         0.0
 (Enter /opt/g09/g09/l703.exe)
 Compute integral first derivatives, UseDBF=F ICtDFT=           0.
 Integral derivatives from FoFJK, PRISM(SPDF).
 Calling FoFJK, ICntrl=      2127 FMM=F ISym2X=0 I1Cent= 0 IOpClX= 0 NMat=1 NMatS=1 NMatT=0.
 FoFJK:  IHMeth= 8 ICntrl=    2127 DoSepK=F KAlg= 0 I1Cent=   0 FoldK=F
 IRaf=         0 NMat=   1 IRICut=       1 DoRegI=T DoRafI=F ISym2E= 0.
 FoFCou: FMM=F IPFlag=           0 FMFlag=      100000 FMFlg1=         800
         NFxFlg=           0 DoJE=F BraDBF=F KetDBF=F FulRan=T
         wScrn=  0.000000 ICntrl=    2127 IOpCl=  0 I1Cent=           0 NGrid=           0
         NMat0=    1 NMatS0=      1 NMatT0=    0 NMatD0=    1 NMtDS0=    0 NMtDT0=    0
 Symmetry not used in FoFCou.
 Leave Link  703 at Wed Mar 23 16:29:23 2016, MaxMem=    33554432 cpu:         0.0
 (Enter /opt/g09/g09/l716.exe)
 Dipole        =-3.03329736D-01-2.44766680D-02 1.82713709D-03
 ***** Axes restored to original set *****
 -------------------------------------------------------------------
 Center     Atomic                   Forces (Hartrees/Bohr)
 Number     Number              X              Y              Z
 -------------------------------------------------------------------
      1        6          -0.036768637   -0.064419095   -0.016360277
      2        6           0.052050443    0.049789627    0.003517581
      3        6          -0.070196042   -0.002109219   -0.018566615
      4        6           0.023753544    0.008808440    0.013991713
      5        1           0.021064333    0.009080921   -0.000755779
      6        1          -0.007262333    0.011981167    0.000904502
      7        1          -0.007691398   -0.010075990   -0.004038788
      8        1          -0.000337781   -0.009960299    0.004484609
      9       16           0.025387871    0.006904448    0.016823054
 -------------------------------------------------------------------
 Cartesian Forces:  Max     0.070196042 RMS     0.026583055
 Leave Link  716 at Wed Mar 23 16:29:23 2016, MaxMem=    33554432 cpu:         0.0
 (Enter /opt/g09/g09/l103.exe)

 GradGradGradGradGradGradGradGradGradGradGradGradGradGradGradGradGradGrad
 Berny optimization.
 FormGI is forming the generalized inverse of G from B-inverse, IUseBI=4.
 Internal  Forces:  Max     0.054823904 RMS     0.017197279
 Search for a local minimum.
 Step number   1 out of a maximum of   48
 All quantities printed in internal units (Hartrees-Bohrs-Radians)
 RMS Force = .17197D-01 SwitMx=.10000D-02 MixMth= 1
 Mixed Optimization -- RFO/linear search
 Second derivative matrix not updated -- first step.
 ITU=  0
     Eigenvalues ---    0.01527   0.01672   0.01957   0.02273   0.02330
     Eigenvalues ---    0.02656   0.15767   0.15839   0.15890   0.15918
     Eigenvalues ---    0.21856   0.22518   0.26554   0.32857   0.34717
     Eigenvalues ---    0.36985   0.37012   0.37026   0.39938   0.44868
     Eigenvalues ---    0.56903
 RFO step:  Lambda=-3.19042703D-02 EMin= 1.52702484D-02
 Linear search not attempted -- first point.
 Iteration  1 RMS(Cart)=  0.07243025 RMS(Int)=  0.00420402
 Iteration  2 RMS(Cart)=  0.00387151 RMS(Int)=  0.00209583
 Iteration  3 RMS(Cart)=  0.00000732 RMS(Int)=  0.00209582
 Iteration  4 RMS(Cart)=  0.00000001 RMS(Int)=  0.00209582
 ITry= 1 IFail=0 DXMaxC= 2.05D-01 DCOld= 1.00D+10 DXMaxT= 3.00D-01 DXLimC= 3.00D+00 Rises=F
 Variable       Old X    -DE/DX   Delta X   Delta X   Delta X     New X
                                 (Linear)    (Quad)   (Total)
    R1        2.69407  -0.05059   0.00000  -0.12041  -0.11976   2.57431
    R2        2.63725   0.04364   0.00000   0.09182   0.09138   2.72863
    R3        2.06137   0.00429   0.00000   0.01132   0.01132   2.07269
    R4        2.02569   0.01067   0.00000   0.02656   0.02656   2.05224
    R5        3.24528  -0.00535   0.00000  -0.02637  -0.02543   3.21985
    R6        2.51277   0.05482   0.00000   0.09539   0.09445   2.60722
    R7        2.02528   0.01339   0.00000   0.03330   0.03330   2.05858
    R8        3.38135  -0.03244   0.00000  -0.10182  -0.10213   3.27921
    R9        2.02507   0.02260   0.00000   0.05619   0.05619   2.08126
    A1        1.99773  -0.00974   0.00000  -0.03560  -0.03823   1.95950
    A2        2.20791  -0.00355   0.00000  -0.02410  -0.02370   2.18420
    A3        2.06997   0.01358   0.00000   0.06674   0.06748   2.13745
    A4        2.14802  -0.00363   0.00000   0.00459   0.00473   2.15275
    A5        1.89023   0.02004   0.00000   0.05557   0.05473   1.94496
    A6        2.23973  -0.01630   0.00000  -0.06028  -0.05958   2.18016
    A7        2.23708   0.01083   0.00000   0.03695   0.03599   2.27307
    A8        1.91966  -0.01195   0.00000  -0.01042  -0.01701   1.90265
    A9        2.11732   0.00211   0.00000  -0.00890  -0.00988   2.10744
   A10        1.98028  -0.00765   0.00000   0.00546  -0.00015   1.98013
   A11        2.16008   0.00034   0.00000  -0.01644  -0.01633   2.14375
   A12        2.13510   0.00804   0.00000   0.02378   0.02395   2.15904
   A13        1.60613   0.01159   0.00000   0.03199   0.02968   1.63582
    D1       -3.01992  -0.00136   0.00000  -0.01258  -0.01058  -3.03050
    D2        0.02051  -0.00122   0.00000  -0.01718  -0.01522   0.00529
    D3        0.25652  -0.00495   0.00000  -0.07994  -0.07801   0.17851
    D4       -2.98623  -0.00481   0.00000  -0.08454  -0.08265  -3.06888
    D5        0.14932  -0.00663   0.00000  -0.11502  -0.11505   0.03427
    D6       -3.12310   0.00010   0.00000  -0.00535  -0.00783  -3.13093
    D7       -3.11567  -0.00459   0.00000  -0.06017  -0.05699   3.11053
    D8       -0.10490   0.00213   0.00000   0.04951   0.05023  -0.05467
    D9       -0.12763   0.00182   0.00000   0.09135   0.09547  -0.03215
   D10        2.90588   0.00310   0.00000   0.09193   0.09576   3.00165
   D11        3.04682   0.00295   0.00000   0.04626   0.04555   3.09237
   D12        0.03393  -0.00304   0.00000  -0.05825  -0.05931  -0.02537
   D13       -0.23991   0.01064   0.00000   0.18417   0.18385  -0.05606
   D14        3.03038   0.00466   0.00000   0.07966   0.07899   3.10937
   D15        0.21535  -0.00916   0.00000  -0.16683  -0.16491   0.05044
   D16       -3.05972  -0.00112   0.00000  -0.03552  -0.03751  -3.09723
         Item               Value     Threshold  Converged?
 Maximum Force            0.054824     0.000450     NO 
 RMS     Force            0.017197     0.000300     NO 
 Maximum Displacement     0.204661     0.001800     NO 
 RMS     Displacement     0.072336     0.001200     NO 
 Predicted change in Energy=-1.902666D-02
 Lowest energy point so far.  Saving SCF results.
 GradGradGradGradGradGradGradGradGradGradGradGradGradGradGradGradGradGrad

 Leave Link  103 at Wed Mar 23 16:29:23 2016, MaxMem=    33554432 cpu:         0.0
 (Enter /opt/g09/g09/l202.exe)
                          Input orientation:                          
 ---------------------------------------------------------------------
 Center     Atomic      Atomic             Coordinates (Angstroms)
 Number     Number       Type             X           Y           Z
 ---------------------------------------------------------------------
      1          6           0        0.886024   -0.694267    0.005098
      2          6           0       -0.379619   -1.197857   -0.012832
      3          6           0       -0.359500    1.310270    0.073844
      4          6           0        0.900264    0.749378    0.030040
      5          1           0        1.831573    1.337249    0.037100
      6          1           0       -0.662957    2.354328    0.141276
      7          1           0       -0.601491   -2.257882    0.067904
      8          1           0        1.804007   -1.291115   -0.058878
      9         16           0       -1.544682    0.045438   -0.008366
 ---------------------------------------------------------------------
                    Distance matrix (angstroms):
                    1          2          3          4          5
     1  C    0.000000
     2  C    1.362269   0.000000
     3  C    2.360980   2.509705   0.000000
     4  C    1.443931   2.330592   1.379682   0.000000
     5  H    2.241014   3.364316   2.191547   1.101353   0.000000
     6  H    3.422254   3.566798   1.089353   2.243189   2.695919
     7  H    2.159059   1.086001   3.576354   3.361594   4.341165
     8  H    1.096820   2.186101   3.386087   2.233443   2.630260
     9  S    2.540802   1.703871   1.735285   2.544556   3.615237
                    6          7          8          9
     6  H    0.000000
     7  H    4.613203   0.000000
     8  H    4.406272   2.595599   0.000000
     9  S    2.476046   2.490123   3.605918   0.000000
 Stoichiometry    C4H4S
 Framework group  C1[X(C4H4S)]
 Deg. of freedom    21
 Full point group                 C1      NOp   1
 RotChk:  IX=3 Diff= 1.67D-01
 Largest Abelian subgroup         C1      NOp   1
 Largest concise Abelian subgroup C1      NOp   1
                         Standard orientation:                         
 ---------------------------------------------------------------------
 Center     Atomic      Atomic             Coordinates (Angstroms)
 Number     Number       Type             X           Y           Z
 ---------------------------------------------------------------------
      1          6           0       -1.266749    0.709587    0.002582
      2          6           0       -0.012315    1.240770    0.006491
      3          6           0        0.021799   -1.268634    0.025175
      4          6           0       -1.249625   -0.734172   -0.011620
      5          1           0       -2.167908   -1.342049   -0.026505
      6          1           0        0.347567   -2.307322    0.066314
      7          1           0        0.185889    2.302765    0.117304
      8          1           0       -2.197146    1.287932   -0.051186
      9         16           0        1.179559    0.023336   -0.015106
 ---------------------------------------------------------------------
 Rotational constants (GHZ):      7.8296728      5.4862370      3.2274409
 Leave Link  202 at Wed Mar 23 16:29:23 2016, MaxMem=    33554432 cpu:         0.0
 (Enter /opt/g09/g09/l301.exe)

 Semi-emprical parameters in input format:
 Method=8 CoreType=1 PeptideFC=0.0114505045 RIJScale=0.5291772086
 ****
 H       
 PQN=1 NValence=1 F0ss=0.4721553327 ZetaOverlap=1.1880780000 U=-0.3969075184
 Beta=-0.2268825074 CoreKO=1.0589197790 KON=0,0,0,1.0589197790 KON=1,0,1,1.0589197790
 KON=0,1,1,1.0589197790 KON=2,1,1,1.0589197790 EISol=-0.4188110042 EHeat=0.0830298228
 Alpha=1.5252601686
 GCore=0.0076202981,1.4001425905,2.2676713595
 GCore=0.0003534810,1.4001425905,3.4015070392
 GCore=-0.0012733648,0.5600570362,4.0533982428
 ****
 C       
 PQN=2,2 NValence=4 F0ss=0.4494442496 F0sp=0.4215147623 F0pp=0.3768030831 F2pp=0.1898715146
 G1sp=0.2679025821
 ZetaOverlap=1.8086650000,1.6851160000
 U=-1.9237066217,-1.4557965594
 Beta=-0.5775444233,-0.2836784428 DDN=0,1,0.8236736000 DDN=1,1,0.7242431475
 CoreKO=1.1124284736 KON=0,0,0,1.1124284736 KON=1,0,1,0.8219701441 KON=0,1,1,1.1124284736
 KON=2,1,1,0.7783928119 EISol=-4.4398989268 EHeat=0.2723305520 Alpha=1.4014062429
 DipHyp=1.6472524267
 GCore=0.0007885612,1.4001425905,3.0235618126
 GCore=0.0031892455,1.4001425905,3.4959933458
 GCore=-0.0013931594,1.4001425905,3.8739385724
 GCore=-0.0000875022,1.4001425905,5.0077742521
 ****
 S       
 PQN=3,3 NValence=6 F0ss=0.4331396397 F0sp=0.3183640731 F0pp=0.3136271218 F2pp=0.3791170965
 G1sp=0.2791629797
 ZetaOverlap=2.3665150000,1.6672630000,1.0000000000
 U=-2.0834683120,-1.7903186861
 Beta=-0.1440781557,-0.2905136336 DDN=0,1,0.8587275484 DDN=1,1,1.0036329000
 CoreKO=1.1543033468 KON=0,0,0,1.1543033468 KON=1,0,1,0.8464368816 KON=0,1,1,1.1543033468
 KON=2,1,1,0.7746001785 EISol=-7.0460287497 EHeat=0.1058151363 Alpha=1.2911422608
 DipHyp=1.7173562901
 GCore=-0.0353616377,1.2863644833,1.4563457902
 GCore=-0.0008238398,1.6425719595,2.8408498620
 GCore=0.0008565489,3.7602184278,3.7967867236
 ****
 
 Standard basis: VSTO-6G (5D, 7F)
 Ernie: Thresh=  0.10000D-02 Tol=  0.10000D-05 Strict=F.
  NNHCO=     0 NNPyr=     0 NCTC=     0               EPep=         0.000000000
    EC=        63.393849622  ECS=         1.624176305   EG=         0.135859586
   EHC=         0.000000000  EAt=       -26.480868474  AtH=         1.527256636
 EPDDG=         0.000000000  ECC=        65.153885513 EAtT=        28.008125109
 There are    24 symmetry adapted cartesian basis functions of A   symmetry.
 There are    24 symmetry adapted basis functions of A   symmetry.
    24 basis functions,   144 primitive gaussians,    24 cartesian basis functions
    13 alpha electrons       13 beta electrons
       nuclear repulsion energy        93.1620106219 Hartrees.



 Warning!  S  atom    9 may be hypervalent but has no d functions.



 IExCor=    0 DFT=F Ex=HF Corr=None ExCW=0 ScaHFX=  1.000000
 ScaDFX=  1.000000  1.000000  1.000000  1.000000 ScalE2=  1.000000  1.000000
 IRadAn=      0 IRanWt=     -1 IRanGd=            0 ICorTp=0 IEmpDi=  4
 Integral buffers will be    131072 words long.
 Regular integral format.
 Two-electron integral symmetry is turned off.
 Leave Link  301 at Wed Mar 23 16:29:23 2016, MaxMem=    33554432 cpu:         0.0
 (Enter /opt/g09/g09/l302.exe)
 Do NDO integrals.
 NPDir=0 NMtPBC=     1 NCelOv=     1 NCel=       1 NClECP=     1 NCelD=      1
         NCelK=      1 NCelE2=     1 NClLst=     1 CellRange=     0.0.
 One-electron integrals computed using PRISM.
 NBasis=    24 RedAO= F EigKep=  0.00D+00  NBF=    24
 NBsUse=    24 1.00D-04 EigRej=  0.00D+00 NBFU=    24
 Leave Link  302 at Wed Mar 23 16:29:23 2016, MaxMem=    33554432 cpu:         0.0
 (Enter /opt/g09/g09/l303.exe)
 DipDrv:  MaxL=1.
 Leave Link  303 at Wed Mar 23 16:29:23 2016, MaxMem=    33554432 cpu:         0.0
 (Enter /opt/g09/g09/l401.exe)
 Initial guess from the checkpoint file:  "/opt/g09/scratch/Gau-6310.chk"
 B after Tr=     0.000000    0.000000    0.000000
         Rot=    0.998361   -0.000534   -0.000863   -0.057230 Ang=  -6.56 deg.
 Guess basis will be translated and rotated to current coordinates.
 JPrj=0 DoOrth=T DoCkMO=T.
 Leave Link  401 at Wed Mar 23 16:29:23 2016, MaxMem=    33554432 cpu:         0.0
 (Enter /opt/g09/g09/l502.exe)
 Closed shell SCF:
 Using DIIS extrapolation, IDIIS=  1040.
 Overlap will be assumed to be unity.
 Two-electron integral symmetry not used.
 Keep J ints in memory in canonical form, NReq=888082.
 IVT=       79475 IEndB=       79475 NGot=    33554432 MDV=    33473473
 LenX=    33473473 LenY=    33472456
 Requested convergence on RMS density matrix=1.00D-08 within 128 cycles.
 Requested convergence on MAX density matrix=1.00D-06.
 Requested convergence on             energy=1.00D-06.
 No special actions if energy rises.
 FoFCou: FMM=F IPFlag=           0 FMFlag=           0 FMFlg1=           0
         NFxFlg=           0 DoJE=F BraDBF=F KetDBF=F FulRan=T
         wScrn=  0.000000 ICntrl=     600 IOpCl=  2 I1Cent=           0 NGrid=           0
         NMat0=    1 NMatS0=     54 NMatT0=    0 NMatD0=    1 NMtDS0=    0 NMtDT0=    0
 Symmetry not used in FoFCou.

 Cycle   1  Pass 1  IDiag  1:
 E= 0.642875099056539E-01
 DIIS: error= 9.09D-03 at cycle   1 NSaved=   1.
 NSaved= 1 IEnMin= 1 EnMin= 0.642875099056539E-01 IErMin= 1 ErrMin= 9.09D-03
 ErrMax= 9.09D-03  0.00D+00 EMaxC= 1.00D-01 BMatC= 3.31D-03 BMatP= 3.31D-03
 IDIUse=3 WtCom= 9.09D-01 WtEn= 9.09D-02
 Coeff-Com:  0.100D+01
 Coeff-En:   0.100D+01
 Coeff:      0.100D+01
 GapD=    2.000 DampG=2.000 DampE=1.000 DampFc=2.0000 IDamp=-1.
 RMSDP=4.54D-03 MaxDP=2.72D-02              OVMax= 0.00D+00

 Cycle   2  Pass 1  IDiag  3:
 E= 0.528081008845191E-01 Delta-E=       -0.011479409021 Rises=F Damp=F
 DIIS: error= 4.07D-03 at cycle   2 NSaved=   2.
 NSaved= 2 IEnMin= 2 EnMin= 0.528081008845191E-01 IErMin= 2 ErrMin= 4.07D-03
 ErrMax= 4.07D-03  0.00D+00 EMaxC= 1.00D-01 BMatC= 4.66D-04 BMatP= 3.31D-03
 IDIUse=3 WtCom= 9.59D-01 WtEn= 4.07D-02
 Coeff-Com: -0.475D+00 0.148D+01
 Coeff-En:   0.000D+00 0.100D+01
 Coeff:     -0.456D+00 0.146D+01
 Gap=     0.347 Goal=   None    Shift=    0.000
 RMSDP=3.07D-03 MaxDP=1.96D-02 DE=-1.15D-02 OVMax= 1.81D-02

 Cycle   3  Pass 1  IDiag  3:
 E= 0.501515008104860E-01 Delta-E=       -0.002656600074 Rises=F Damp=F
 DIIS: error= 1.07D-03 at cycle   3 NSaved=   3.
 NSaved= 3 IEnMin= 3 EnMin= 0.501515008104860E-01 IErMin= 3 ErrMin= 1.07D-03
 ErrMax= 1.07D-03  0.00D+00 EMaxC= 1.00D-01 BMatC= 3.02D-05 BMatP= 4.66D-04
 IDIUse=3 WtCom= 9.89D-01 WtEn= 1.07D-02
 Coeff-Com:  0.251D+00-0.947D+00 0.170D+01
 Coeff-En:   0.000D+00 0.000D+00 0.100D+01
 Coeff:      0.248D+00-0.937D+00 0.169D+01
 Gap=     0.347 Goal=   None    Shift=    0.000
 RMSDP=1.22D-03 MaxDP=7.30D-03 DE=-2.66D-03 OVMax= 8.57D-03

 Cycle   4  Pass 1  IDiag  3:
 E= 0.499025356020297E-01 Delta-E=       -0.000248965208 Rises=F Damp=F
 DIIS: error= 1.27D-04 at cycle   4 NSaved=   4.
 NSaved= 4 IEnMin= 4 EnMin= 0.499025356020297E-01 IErMin= 4 ErrMin= 1.27D-04
 ErrMax= 1.27D-04  0.00D+00 EMaxC= 1.00D-01 BMatC= 9.65D-07 BMatP= 3.02D-05
 IDIUse=3 WtCom= 9.99D-01 WtEn= 1.27D-03
 Coeff-Com: -0.114D+00 0.445D+00-0.897D+00 0.157D+01
 Coeff-En:   0.000D+00 0.000D+00 0.000D+00 0.100D+01
 Coeff:     -0.114D+00 0.444D+00-0.896D+00 0.157D+01
 Gap=     0.348 Goal=   None    Shift=    0.000
 RMSDP=2.32D-04 MaxDP=1.17D-03 DE=-2.49D-04 OVMax= 2.66D-03

 Cycle   5  Pass 1  IDiag  3:
 E= 0.498935836073713E-01 Delta-E=       -0.000008951995 Rises=F Damp=F
 DIIS: error= 3.70D-05 at cycle   5 NSaved=   5.
 NSaved= 5 IEnMin= 5 EnMin= 0.498935836073713E-01 IErMin= 5 ErrMin= 3.70D-05
 ErrMax= 3.70D-05  0.00D+00 EMaxC= 1.00D-01 BMatC= 6.12D-08 BMatP= 9.65D-07
 IDIUse=1 WtCom= 1.00D+00 WtEn= 0.00D+00
 Coeff-Com:  0.168D-01-0.679D-01 0.153D+00-0.476D+00 0.137D+01
 Coeff:      0.168D-01-0.679D-01 0.153D+00-0.476D+00 0.137D+01
 Gap=     0.348 Goal=   None    Shift=    0.000
 RMSDP=6.06D-05 MaxDP=3.60D-04 DE=-8.95D-06 OVMax= 8.24D-04

 Cycle   6  Pass 1  IDiag  3:
 E= 0.498929795597718E-01 Delta-E=       -0.000000604048 Rises=F Damp=F
 DIIS: error= 1.11D-05 at cycle   6 NSaved=   6.
 NSaved= 6 IEnMin= 6 EnMin= 0.498929795597718E-01 IErMin= 6 ErrMin= 1.11D-05
 ErrMax= 1.11D-05  0.00D+00 EMaxC= 1.00D-01 BMatC= 5.56D-09 BMatP= 6.12D-08
 IDIUse=1 WtCom= 1.00D+00 WtEn= 0.00D+00
 Coeff-Com: -0.348D-03 0.226D-02-0.104D-01 0.105D+00-0.627D+00 0.153D+01
 Coeff:     -0.348D-03 0.226D-02-0.104D-01 0.105D+00-0.627D+00 0.153D+01
 Gap=     0.348 Goal=   None    Shift=    0.000
 RMSDP=1.92D-05 MaxDP=1.23D-04 DE=-6.04D-07 OVMax= 2.74D-04

 Cycle   7  Pass 1  IDiag  3:
 E= 0.498929256746266E-01 Delta-E=       -0.000000053885 Rises=F Damp=F
 DIIS: error= 2.77D-06 at cycle   7 NSaved=   7.
 NSaved= 7 IEnMin= 7 EnMin= 0.498929256746266E-01 IErMin= 7 ErrMin= 2.77D-06
 ErrMax= 2.77D-06  0.00D+00 EMaxC= 1.00D-01 BMatC= 3.29D-10 BMatP= 5.56D-09
 IDIUse=1 WtCom= 1.00D+00 WtEn= 0.00D+00
 Coeff-Com: -0.911D-03 0.323D-02-0.474D-02-0.182D-01 0.197D+00-0.684D+00
 Coeff-Com:  0.151D+01
 Coeff:     -0.911D-03 0.323D-02-0.474D-02-0.182D-01 0.197D+00-0.684D+00
 Coeff:      0.151D+01
 Gap=     0.348 Goal=   None    Shift=    0.000
 RMSDP=4.28D-06 MaxDP=2.66D-05 DE=-5.39D-08 OVMax= 5.70D-05

 Cycle   8  Pass 1  IDiag  3:
 E= 0.498929228340330E-01 Delta-E=       -0.000000002841 Rises=F Damp=F
 DIIS: error= 6.62D-07 at cycle   8 NSaved=   8.
 NSaved= 8 IEnMin= 8 EnMin= 0.498929228340330E-01 IErMin= 8 ErrMin= 6.62D-07
 ErrMax= 6.62D-07  0.00D+00 EMaxC= 1.00D-01 BMatC= 1.58D-11 BMatP= 3.29D-10
 IDIUse=1 WtCom= 1.00D+00 WtEn= 0.00D+00
 Coeff-Com:  0.280D-03-0.104D-02 0.185D-02 0.114D-02-0.342D-01 0.151D+00
 Coeff-Com: -0.516D+00 0.140D+01
 Coeff:      0.280D-03-0.104D-02 0.185D-02 0.114D-02-0.342D-01 0.151D+00
 Coeff:     -0.516D+00 0.140D+01
 Gap=     0.348 Goal=   None    Shift=    0.000
 RMSDP=8.32D-07 MaxDP=4.40D-06 DE=-2.84D-09 OVMax= 9.16D-06

 Cycle   9  Pass 1  IDiag  3:
 E= 0.498929227111518E-01 Delta-E=       -0.000000000123 Rises=F Damp=F
 DIIS: error= 1.86D-07 at cycle   9 NSaved=   9.
 NSaved= 9 IEnMin= 9 EnMin= 0.498929227111518E-01 IErMin= 9 ErrMin= 1.86D-07
 ErrMax= 1.86D-07  0.00D+00 EMaxC= 1.00D-01 BMatC= 9.45D-13 BMatP= 1.58D-11
 IDIUse=1 WtCom= 1.00D+00 WtEn= 0.00D+00
 Coeff-Com: -0.549D-04 0.209D-03-0.413D-03 0.377D-03 0.339D-02-0.235D-01
 Coeff-Com:  0.125D+00-0.547D+00 0.144D+01
 Coeff:     -0.549D-04 0.209D-03-0.413D-03 0.377D-03 0.339D-02-0.235D-01
 Coeff:      0.125D+00-0.547D+00 0.144D+01
 Gap=     0.348 Goal=   None    Shift=    0.000
 RMSDP=1.92D-07 MaxDP=1.23D-06 DE=-1.23D-10 OVMax= 1.53D-06

 Cycle  10  Pass 1  IDiag  3:
 E= 0.498929227037337E-01 Delta-E=       -0.000000000007 Rises=F Damp=F
 DIIS: error= 4.49D-08 at cycle  10 NSaved=  10.
 NSaved=10 IEnMin=10 EnMin= 0.498929227037337E-01 IErMin=10 ErrMin= 4.49D-08
 ErrMax= 4.49D-08  0.00D+00 EMaxC= 1.00D-01 BMatC= 6.16D-14 BMatP= 9.45D-13
 IDIUse=1 WtCom= 1.00D+00 WtEn= 0.00D+00
 Coeff-Com:  0.130D-04-0.516D-04 0.113D-03-0.217D-03-0.254D-03 0.531D-02
 Coeff-Com: -0.406D-01 0.217D+00-0.778D+00 0.160D+01
 Coeff:      0.130D-04-0.516D-04 0.113D-03-0.217D-03-0.254D-03 0.531D-02
 Coeff:     -0.406D-01 0.217D+00-0.778D+00 0.160D+01
 Gap=     0.348 Goal=   None    Shift=    0.000
 RMSDP=5.76D-08 MaxDP=3.85D-07 DE=-7.42D-12 OVMax= 3.84D-07

 Cycle  11  Pass 1  IDiag  3:
 E= 0.498929227035489E-01 Delta-E=        0.000000000000 Rises=F Damp=F
 DIIS: error= 6.27D-09 at cycle  11 NSaved=  11.
 NSaved=11 IEnMin=11 EnMin= 0.498929227035489E-01 IErMin=11 ErrMin= 6.27D-09
 ErrMax= 6.27D-09  0.00D+00 EMaxC= 1.00D-01 BMatC= 2.57D-15 BMatP= 6.16D-14
 IDIUse=1 WtCom= 1.00D+00 WtEn= 0.00D+00
 Coeff-Com: -0.695D-05 0.279D-04-0.633D-04 0.155D-03-0.120D-03-0.202D-02
 Coeff-Com:  0.196D-01-0.110D+00 0.415D+00-0.962D+00 0.164D+01
 Coeff:     -0.695D-05 0.279D-04-0.633D-04 0.155D-03-0.120D-03-0.202D-02
 Coeff:      0.196D-01-0.110D+00 0.415D+00-0.962D+00 0.164D+01
 Gap=     0.348 Goal=   None    Shift=    0.000
 RMSDP=1.22D-08 MaxDP=6.33D-08 DE=-1.85D-13 OVMax= 1.32D-07

 Cycle  12  Pass 1  IDiag  3:
 E= 0.498929227033926E-01 Delta-E=        0.000000000000 Rises=F Damp=F
 DIIS: error= 2.03D-09 at cycle  12 NSaved=  12.
 NSaved=12 IEnMin=12 EnMin= 0.498929227033926E-01 IErMin=12 ErrMin= 2.03D-09
 ErrMax= 2.03D-09  0.00D+00 EMaxC= 1.00D-01 BMatC= 1.74D-16 BMatP= 2.57D-15
 IDIUse=1 WtCom= 1.00D+00 WtEn= 0.00D+00
 Coeff-Com:  0.309D-05-0.125D-04 0.284D-04-0.689D-04 0.487D-04 0.918D-03
 Coeff-Com: -0.886D-02 0.499D-01-0.189D+00 0.448D+00-0.916D+00 0.161D+01
 Coeff:      0.309D-05-0.125D-04 0.284D-04-0.689D-04 0.487D-04 0.918D-03
 Coeff:     -0.886D-02 0.499D-01-0.189D+00 0.448D+00-0.916D+00 0.161D+01
 Gap=     0.348 Goal=   None    Shift=    0.000
 RMSDP=3.49D-09 MaxDP=2.02D-08 DE=-1.56D-13 OVMax= 5.05D-08

 Cycle  13  Pass 2  IDiag  1:
 SCF Done:  E(RAM1) =  0.498929227034E-01 A.U. after   13 cycles
            NFock= 12  Conv=0.35D-08     -V/T= 1.0035
 KE=-1.444060243062D+01 PE=-1.549060737941D+02 EE= 7.623455852549D+01
 Leave Link  502 at Wed Mar 23 16:29:23 2016, MaxMem=    33554432 cpu:         0.0
 (Enter /opt/g09/g09/l701.exe)
 Compute integral first derivatives.
 ... and contract with generalized density number  0.
 Leave Link  701 at Wed Mar 23 16:29:23 2016, MaxMem=    33554432 cpu:         0.0
 (Enter /opt/g09/g09/l702.exe)
 L702 exits ... SP integral derivatives will be done elsewhere.
 Leave Link  702 at Wed Mar 23 16:29:23 2016, MaxMem=    33554432 cpu:         0.0
 (Enter /opt/g09/g09/l703.exe)
 Compute integral first derivatives, UseDBF=F ICtDFT=           0.
 Integral derivatives from FoFJK, PRISM(SPDF).
 Calling FoFJK, ICntrl=      2127 FMM=F ISym2X=0 I1Cent= 0 IOpClX= 0 NMat=1 NMatS=1 NMatT=0.
 FoFJK:  IHMeth= 8 ICntrl=    2127 DoSepK=F KAlg= 0 I1Cent=   0 FoldK=F
 IRaf=         0 NMat=   1 IRICut=       1 DoRegI=T DoRafI=F ISym2E= 0.
 FoFCou: FMM=F IPFlag=           0 FMFlag=      100000 FMFlg1=         800
         NFxFlg=           0 DoJE=F BraDBF=F KetDBF=F FulRan=T
         wScrn=  0.000000 ICntrl=    2127 IOpCl=  0 I1Cent=           0 NGrid=           0
         NMat0=    1 NMatS0=      1 NMatT0=    0 NMatD0=    1 NMtDS0=    0 NMtDT0=    0
 Symmetry not used in FoFCou.
 Leave Link  703 at Wed Mar 23 16:29:23 2016, MaxMem=    33554432 cpu:         0.0
 (Enter /opt/g09/g09/l716.exe)
 Dipole        =-2.46051262D-01-1.53208459D-02 2.90505030D-02
 ***** Axes restored to original set *****
 -------------------------------------------------------------------
 Center     Atomic                   Forces (Hartrees/Bohr)
 Number     Number              X              Y              Z
 -------------------------------------------------------------------
      1        6           0.010121984    0.013389430   -0.006743375
      2        6          -0.007346510    0.002293057    0.006242267
      3        6           0.001484434   -0.024845435   -0.004341914
      4        6          -0.004010044    0.010453589    0.003764426
      5        1          -0.002566584   -0.003298794    0.000185629
      6        1           0.002685848   -0.000806765   -0.001119173
      7        1          -0.006932990   -0.003357678   -0.004169111
      8        1          -0.000201407    0.001048657    0.002764289
      9       16           0.006765270    0.005123940    0.003416961
 -------------------------------------------------------------------
 Cartesian Forces:  Max     0.024845435 RMS     0.007198517
 Leave Link  716 at Wed Mar 23 16:29:23 2016, MaxMem=    33554432 cpu:         0.0
 (Enter /opt/g09/g09/l103.exe)

 GradGradGradGradGradGradGradGradGradGradGradGradGradGradGradGradGradGrad
 Berny optimization.
 Using GEDIIS/GDIIS optimizer.
 FormGI is forming the generalized inverse of G from B-inverse, IUseBI=4.
 Internal  Forces:  Max     0.013072290 RMS     0.004974976
 Search for a local minimum.
 Step number   2 out of a maximum of   48
 All quantities printed in internal units (Hartrees-Bohrs-Radians)
 RMS Force = .49750D-02 SwitMx=.10000D-02 MixMth= 1
 Mixed Optimization -- RFO/linear search
 Update second derivatives using D2CorX and points    1    2
 DE= -1.54D-02 DEPred=-1.90D-02 R= 8.09D-01
 TightC=F SS=  1.41D+00  RLast= 4.35D-01 DXNew= 5.0454D-01 1.3049D+00
 Trust test= 8.09D-01 RLast= 4.35D-01 DXMaxT set to 5.05D-01
 ITU=  1  0
 Use linear search instead of GDIIS.
     Eigenvalues ---    0.01541   0.01662   0.01957   0.02258   0.02458
     Eigenvalues ---    0.02654   0.15232   0.15973   0.15988   0.16237
     Eigenvalues ---    0.21853   0.22528   0.25023   0.32588   0.34727
     Eigenvalues ---    0.36724   0.37015   0.37252   0.42161   0.48849
     Eigenvalues ---    0.62973
 RFO step:  Lambda=-4.29354432D-03 EMin= 1.54096609D-02
 Quartic linear search produced a step of -0.02740.
 Iteration  1 RMS(Cart)=  0.04200389 RMS(Int)=  0.00214169
 Iteration  2 RMS(Cart)=  0.00205593 RMS(Int)=  0.00088203
 Iteration  3 RMS(Cart)=  0.00000444 RMS(Int)=  0.00088203
 Iteration  4 RMS(Cart)=  0.00000001 RMS(Int)=  0.00088203
 ITry= 1 IFail=0 DXMaxC= 1.47D-01 DCOld= 1.00D+10 DXMaxT= 5.05D-01 DXLimC= 3.00D+00 Rises=F
 Variable       Old X    -DE/DX   Delta X   Delta X   Delta X     New X
                                 (Linear)    (Quad)   (Total)
    R1        2.57431   0.01307   0.00328   0.02211   0.02568   2.60000
    R2        2.72863  -0.00711  -0.00250  -0.00732  -0.00979   2.71884
    R3        2.07269  -0.00090  -0.00031  -0.00154  -0.00185   2.07084
    R4        2.05224   0.00438  -0.00073   0.01343   0.01271   2.06495
    R5        3.21985  -0.00664   0.00070  -0.01865  -0.01777   3.20208
    R6        2.60722  -0.01307  -0.00259  -0.01476  -0.01761   2.58961
    R7        2.05858  -0.00159  -0.00091  -0.00136  -0.00227   2.05631
    R8        3.27921  -0.01093   0.00280  -0.04894  -0.04638   3.23283
    R9        2.08126  -0.00393  -0.00154  -0.00549  -0.00703   2.07423
    A1        1.95950  -0.00123   0.00105  -0.00477  -0.00410   1.95540
    A2        2.18420   0.00159   0.00065   0.00555   0.00585   2.19006
    A3        2.13745  -0.00027  -0.00185   0.00233   0.00013   2.13757
    A4        2.15275   0.00749  -0.00013   0.04263   0.04121   2.19396
    A5        1.94496  -0.00216  -0.00150   0.00373   0.00109   1.94605
    A6        2.18016  -0.00513   0.00163  -0.03739  -0.03712   2.14304
    A7        2.27307  -0.00774  -0.00099  -0.03073  -0.03154   2.24152
    A8        1.90265   0.01067   0.00047   0.03743   0.03674   1.93939
    A9        2.10744  -0.00292   0.00027  -0.00639  -0.00596   2.10148
   A10        1.98013  -0.00398   0.00000  -0.02126  -0.02224   1.95789
   A11        2.14375   0.00054   0.00045   0.00102   0.00136   2.14511
   A12        2.15904   0.00347  -0.00066   0.02146   0.02072   2.17977
   A13        1.63582  -0.00318  -0.00081  -0.00914  -0.01055   1.62526
    D1       -3.03050  -0.00132   0.00029  -0.08838  -0.08996  -3.12046
    D2        0.00529   0.00027   0.00042  -0.00214  -0.00138   0.00391
    D3        0.17851  -0.00275   0.00214  -0.13965  -0.13872   0.03979
    D4       -3.06888  -0.00115   0.00226  -0.05342  -0.05014  -3.11902
    D5        0.03427  -0.00169   0.00315  -0.06682  -0.06272  -0.02844
    D6       -3.13093  -0.00058   0.00021  -0.01054  -0.00961  -3.14054
    D7        3.11053  -0.00022   0.00156  -0.01698  -0.01539   3.09514
    D8       -0.05467   0.00088  -0.00138   0.03930   0.03771  -0.01696
    D9       -0.03215   0.00089  -0.00262   0.05126   0.04804   0.01589
   D10        3.00165   0.00344  -0.00262   0.14499   0.13920   3.14085
   D11        3.09237   0.00105  -0.00125   0.04676   0.04582   3.13820
   D12       -0.02537  -0.00001   0.00163  -0.00976  -0.00821  -0.03359
   D13       -0.05606   0.00185  -0.00504   0.09983   0.09574   0.03968
   D14        3.10937   0.00079  -0.00216   0.04330   0.04170  -3.13211
   D15        0.05044  -0.00134   0.00452  -0.08585  -0.08276  -0.03231
   D16       -3.09723  -0.00066   0.00103  -0.03885  -0.03755  -3.13478
         Item               Value     Threshold  Converged?
 Maximum Force            0.013072     0.000450     NO 
 RMS     Force            0.004975     0.000300     NO 
 Maximum Displacement     0.146940     0.001800     NO 
 RMS     Displacement     0.042385     0.001200     NO 
 Predicted change in Energy=-2.360595D-03
 Lowest energy point so far.  Saving SCF results.
 GradGradGradGradGradGradGradGradGradGradGradGradGradGradGradGradGradGrad

 Leave Link  103 at Wed Mar 23 16:29:23 2016, MaxMem=    33554432 cpu:         0.0
 (Enter /opt/g09/g09/l202.exe)
                          Input orientation:                          
 ---------------------------------------------------------------------
 Center     Atomic      Atomic             Coordinates (Angstroms)
 Number     Number       Type             X           Y           Z
 ---------------------------------------------------------------------
      1          6           0        0.897979   -0.681978    0.002601
      2          6           0       -0.380206   -1.191030    0.012334
      3          6           0       -0.359084    1.281058    0.055071
      4          6           0        0.906689    0.756013    0.048542
      5          1           0        1.831603    1.347056    0.047670
      6          1           0       -0.657281    2.327004    0.088923
      7          1           0       -0.644484   -2.251270    0.002479
      8          1           0        1.818212   -1.274498   -0.051826
      9         16           0       -1.539808    0.043187    0.069391
 ---------------------------------------------------------------------
                    Distance matrix (angstroms):
                    1          2          3          4          5
     1  C    0.000000
     2  C    1.375858   0.000000
     3  C    2.331623   2.472548   0.000000
     4  C    1.438750   2.334178   1.370363   0.000000
     5  H    2.233980   3.366784   2.191694   1.097634   0.000000
     6  H    3.388253   3.529760   1.088151   2.217126   2.675172
     7  H    2.200425   1.092725   3.544229   3.384082   4.368181
     8  H    1.095843   2.200938   3.359004   2.227986   2.623476
     9  S    2.544234   1.694469   1.710742   2.548314   3.614825
                    6          7          8          9
     6  H    0.000000
     7  H    4.579108   0.000000
     8  H    4.372493   2.649888   0.000000
     9  S    2.448481   2.463862   3.609333   0.000000
 Stoichiometry    C4H4S
 Framework group  C1[X(C4H4S)]
 Deg. of freedom    21
 Full point group                 C1      NOp   1
 RotChk:  IX=2 Diff= 5.05D-02
 Largest Abelian subgroup         C1      NOp   1
 Largest concise Abelian subgroup C1      NOp   1
                         Standard orientation:                         
 ---------------------------------------------------------------------
 Center     Atomic      Atomic             Coordinates (Angstroms)
 Number     Number       Type             X           Y           Z
 ---------------------------------------------------------------------
      1          6           0       -1.257181    0.728182   -0.001278
      2          6           0        0.022797    1.232795   -0.004273
      3          6           0       -0.006469   -1.239554   -0.015547
      4          6           0       -1.270236   -0.710437    0.013169
      5          1           0       -2.197139   -1.298348    0.016605
      6          1           0        0.288520   -2.286943   -0.010302
      7          1           0        0.290679    2.292141    0.004256
      8          1           0       -2.176119    1.324707   -0.025423
      9         16           0        1.178787   -0.006092    0.003902
 ---------------------------------------------------------------------
 Rotational constants (GHZ):      8.0045583      5.4689336      3.2493578
 Leave Link  202 at Wed Mar 23 16:29:23 2016, MaxMem=    33554432 cpu:         0.0
 (Enter /opt/g09/g09/l301.exe)

 Semi-emprical parameters in input format:
 Method=8 CoreType=1 PeptideFC=0.0114505045 RIJScale=0.5291772086
 ****
 H       
 PQN=1 NValence=1 F0ss=0.4721553327 ZetaOverlap=1.1880780000 U=-0.3969075184
 Beta=-0.2268825074 CoreKO=1.0589197790 KON=0,0,0,1.0589197790 KON=1,0,1,1.0589197790
 KON=0,1,1,1.0589197790 KON=2,1,1,1.0589197790 EISol=-0.4188110042 EHeat=0.0830298228
 Alpha=1.5252601686
 GCore=0.0076202981,1.4001425905,2.2676713595
 GCore=0.0003534810,1.4001425905,3.4015070392
 GCore=-0.0012733648,0.5600570362,4.0533982428
 ****
 C       
 PQN=2,2 NValence=4 F0ss=0.4494442496 F0sp=0.4215147623 F0pp=0.3768030831 F2pp=0.1898715146
 G1sp=0.2679025821
 ZetaOverlap=1.8086650000,1.6851160000
 U=-1.9237066217,-1.4557965594
 Beta=-0.5775444233,-0.2836784428 DDN=0,1,0.8236736000 DDN=1,1,0.7242431475
 CoreKO=1.1124284736 KON=0,0,0,1.1124284736 KON=1,0,1,0.8219701441 KON=0,1,1,1.1124284736
 KON=2,1,1,0.7783928119 EISol=-4.4398989268 EHeat=0.2723305520 Alpha=1.4014062429
 DipHyp=1.6472524267
 GCore=0.0007885612,1.4001425905,3.0235618126
 GCore=0.0031892455,1.4001425905,3.4959933458
 GCore=-0.0013931594,1.4001425905,3.8739385724
 GCore=-0.0000875022,1.4001425905,5.0077742521
 ****
 S       
 PQN=3,3 NValence=6 F0ss=0.4331396397 F0sp=0.3183640731 F0pp=0.3136271218 F2pp=0.3791170965
 G1sp=0.2791629797
 ZetaOverlap=2.3665150000,1.6672630000,1.0000000000
 U=-2.0834683120,-1.7903186861
 Beta=-0.1440781557,-0.2905136336 DDN=0,1,0.8587275484 DDN=1,1,1.0036329000
 CoreKO=1.1543033468 KON=0,0,0,1.1543033468 KON=1,0,1,0.8464368816 KON=0,1,1,1.1543033468
 KON=2,1,1,0.7746001785 EISol=-7.0460287497 EHeat=0.1058151363 Alpha=1.2911422608
 DipHyp=1.7173562901
 GCore=-0.0353616377,1.2863644833,1.4563457902
 GCore=-0.0008238398,1.6425719595,2.8408498620
 GCore=0.0008565489,3.7602184278,3.7967867236
 ****
 
 Standard basis: VSTO-6G (5D, 7F)
 Ernie: Thresh=  0.10000D-02 Tol=  0.10000D-05 Strict=F.
  NNHCO=     0 NNPyr=     0 NCTC=     0               EPep=         0.000000000
    EC=        63.559705326  ECS=         1.640949272   EG=         0.134175513
   EHC=         0.000000000  EAt=       -26.480868474  AtH=         1.527256636
 EPDDG=         0.000000000  ECC=        65.334830111 EAtT=        28.008125109
 There are    24 symmetry adapted cartesian basis functions of A   symmetry.
 There are    24 symmetry adapted basis functions of A   symmetry.
    24 basis functions,   144 primitive gaussians,    24 cartesian basis functions
    13 alpha electrons       13 beta electrons
       nuclear repulsion energy        93.3429552207 Hartrees.



 Warning!  S  atom    9 may be hypervalent but has no d functions.



 IExCor=    0 DFT=F Ex=HF Corr=None ExCW=0 ScaHFX=  1.000000
 ScaDFX=  1.000000  1.000000  1.000000  1.000000 ScalE2=  1.000000  1.000000
 IRadAn=      0 IRanWt=     -1 IRanGd=            0 ICorTp=0 IEmpDi=  4
 Integral buffers will be    131072 words long.
 Regular integral format.
 Two-electron integral symmetry is turned off.
 Leave Link  301 at Wed Mar 23 16:29:23 2016, MaxMem=    33554432 cpu:         0.0
 (Enter /opt/g09/g09/l302.exe)
 Do NDO integrals.
 NPDir=0 NMtPBC=     1 NCelOv=     1 NCel=       1 NClECP=     1 NCelD=      1
         NCelK=      1 NCelE2=     1 NClLst=     1 CellRange=     0.0.
 One-electron integrals computed using PRISM.
 NBasis=    24 RedAO= F EigKep=  0.00D+00  NBF=    24
 NBsUse=    24 1.00D-04 EigRej=  0.00D+00 NBFU=    24
 Leave Link  302 at Wed Mar 23 16:29:23 2016, MaxMem=    33554432 cpu:         0.0
 (Enter /opt/g09/g09/l303.exe)
 DipDrv:  MaxL=1.
 Leave Link  303 at Wed Mar 23 16:29:23 2016, MaxMem=    33554432 cpu:         0.0
 (Enter /opt/g09/g09/l401.exe)
 Initial guess from the checkpoint file:  "/opt/g09/scratch/Gau-6310.chk"
 B after Tr=     0.000000    0.000000    0.000000
         Rot=    0.999932    0.000050   -0.000067    0.011639 Ang=   1.33 deg.
 Guess basis will be translated and rotated to current coordinates.
 JPrj=0 DoOrth=T DoCkMO=T.
 Leave Link  401 at Wed Mar 23 16:29:23 2016, MaxMem=    33554432 cpu:         0.0
 (Enter /opt/g09/g09/l502.exe)
 Closed shell SCF:
 Using DIIS extrapolation, IDIIS=  1040.
 Overlap will be assumed to be unity.
 Two-electron integral symmetry not used.
 Keep J ints in memory in canonical form, NReq=888082.
 IVT=       79475 IEndB=       79475 NGot=    33554432 MDV=    33473473
 LenX=    33473473 LenY=    33472456
 Requested convergence on RMS density matrix=1.00D-08 within 128 cycles.
 Requested convergence on MAX density matrix=1.00D-06.
 Requested convergence on             energy=1.00D-06.
 No special actions if energy rises.
 FoFCou: FMM=F IPFlag=           0 FMFlag=           0 FMFlg1=           0
         NFxFlg=           0 DoJE=F BraDBF=F KetDBF=F FulRan=T
         wScrn=  0.000000 ICntrl=     600 IOpCl=  2 I1Cent=           0 NGrid=           0
         NMat0=    1 NMatS0=     54 NMatT0=    0 NMatD0=    1 NMtDS0=    0 NMtDT0=    0
 Symmetry not used in FoFCou.

 Cycle   1  Pass 1  IDiag  1:
 E= 0.517343894474891E-01
 DIIS: error= 4.63D-03 at cycle   1 NSaved=   1.
 NSaved= 1 IEnMin= 1 EnMin= 0.517343894474891E-01 IErMin= 1 ErrMin= 4.63D-03
 ErrMax= 4.63D-03  0.00D+00 EMaxC= 1.00D-01 BMatC= 7.84D-04 BMatP= 7.84D-04
 IDIUse=3 WtCom= 9.54D-01 WtEn= 4.63D-02
 Coeff-Com:  0.100D+01
 Coeff-En:   0.100D+01
 Coeff:      0.100D+01
 GapD=    2.000 DampG=2.000 DampE=1.000 DampFc=2.0000 IDamp=-1.
 RMSDP=2.42D-03 MaxDP=1.41D-02              OVMax= 0.00D+00

 Cycle   2  Pass 1  IDiag  3:
 E= 0.486569758047892E-01 Delta-E=       -0.003077413643 Rises=F Damp=F
 DIIS: error= 2.12D-03 at cycle   2 NSaved=   2.
 NSaved= 2 IEnMin= 2 EnMin= 0.486569758047892E-01 IErMin= 2 ErrMin= 2.12D-03
 ErrMax= 2.12D-03  0.00D+00 EMaxC= 1.00D-01 BMatC= 1.33D-04 BMatP= 7.84D-04
 IDIUse=3 WtCom= 9.79D-01 WtEn= 2.12D-02
 Coeff-Com: -0.557D+00 0.156D+01
 Coeff-En:   0.000D+00 0.100D+01
 Coeff:     -0.545D+00 0.154D+01
 Gap=     0.349 Goal=   None    Shift=    0.000
 RMSDP=1.82D-03 MaxDP=1.06D-02 DE=-3.08D-03 OVMax= 9.82D-03

 Cycle   3  Pass 1  IDiag  3:
 E= 0.478146370221566E-01 Delta-E=       -0.000842338783 Rises=F Damp=F
 DIIS: error= 4.45D-04 at cycle   3 NSaved=   3.
 NSaved= 3 IEnMin= 3 EnMin= 0.478146370221566E-01 IErMin= 3 ErrMin= 4.45D-04
 ErrMax= 4.45D-04  0.00D+00 EMaxC= 1.00D-01 BMatC= 7.78D-06 BMatP= 1.33D-04
 IDIUse=3 WtCom= 9.96D-01 WtEn= 4.45D-03
 Coeff-Com:  0.274D+00-0.930D+00 0.166D+01
 Coeff-En:   0.000D+00 0.000D+00 0.100D+01
 Coeff:      0.273D+00-0.926D+00 0.165D+01
 Gap=     0.349 Goal=   None    Shift=    0.000
 RMSDP=6.36D-04 MaxDP=3.16D-03 DE=-8.42D-04 OVMax= 4.66D-03

 Cycle   4  Pass 1  IDiag  3:
 E= 0.477492824822008E-01 Delta-E=       -0.000065354540 Rises=F Damp=F
 DIIS: error= 7.06D-05 at cycle   4 NSaved=   4.
 NSaved= 4 IEnMin= 4 EnMin= 0.477492824822008E-01 IErMin= 4 ErrMin= 7.06D-05
 ErrMax= 7.06D-05  0.00D+00 EMaxC= 1.00D-01 BMatC= 2.64D-07 BMatP= 7.78D-06
 IDIUse=1 WtCom= 1.00D+00 WtEn= 0.00D+00
 Coeff-Com: -0.183D+00 0.630D+00-0.121D+01 0.176D+01
 Coeff:     -0.183D+00 0.630D+00-0.121D+01 0.176D+01
 Gap=     0.349 Goal=   None    Shift=    0.000
 RMSDP=1.35D-04 MaxDP=7.92D-04 DE=-6.54D-05 OVMax= 1.69D-03

 Cycle   5  Pass 1  IDiag  3:
 E= 0.477466401046769E-01 Delta-E=       -0.000002642378 Rises=F Damp=F
 DIIS: error= 1.80D-05 at cycle   5 NSaved=   5.
 NSaved= 5 IEnMin= 5 EnMin= 0.477466401046769E-01 IErMin= 5 ErrMin= 1.80D-05
 ErrMax= 1.80D-05  0.00D+00 EMaxC= 1.00D-01 BMatC= 1.35D-08 BMatP= 2.64D-07
 IDIUse=1 WtCom= 1.00D+00 WtEn= 0.00D+00
 Coeff-Com:  0.745D-01-0.257D+00 0.501D+00-0.861D+00 0.154D+01
 Coeff:      0.745D-01-0.257D+00 0.501D+00-0.861D+00 0.154D+01
 Gap=     0.349 Goal=   None    Shift=    0.000
 RMSDP=3.00D-05 MaxDP=1.90D-04 DE=-2.64D-06 OVMax= 4.13D-04

 Cycle   6  Pass 1  IDiag  3:
 E= 0.477465042730074E-01 Delta-E=       -0.000000135832 Rises=F Damp=F
 DIIS: error= 5.85D-06 at cycle   6 NSaved=   6.
 NSaved= 6 IEnMin= 6 EnMin= 0.477465042730074E-01 IErMin= 6 ErrMin= 5.85D-06
 ErrMax= 5.85D-06  0.00D+00 EMaxC= 1.00D-01 BMatC= 1.02D-09 BMatP= 1.35D-08
 IDIUse=1 WtCom= 1.00D+00 WtEn= 0.00D+00
 Coeff-Com: -0.112D-01 0.385D-01-0.760D-01 0.153D+00-0.519D+00 0.141D+01
 Coeff:     -0.112D-01 0.385D-01-0.760D-01 0.153D+00-0.519D+00 0.141D+01
 Gap=     0.349 Goal=   None    Shift=    0.000
 RMSDP=7.79D-06 MaxDP=4.98D-05 DE=-1.36D-07 OVMax= 9.76D-05

 Cycle   7  Pass 1  IDiag  3:
 E= 0.477464948593678E-01 Delta-E=       -0.000000009414 Rises=F Damp=F
 DIIS: error= 1.48D-06 at cycle   7 NSaved=   7.
 NSaved= 7 IEnMin= 7 EnMin= 0.477464948593678E-01 IErMin= 7 ErrMin= 1.48D-06
 ErrMax= 1.48D-06  0.00D+00 EMaxC= 1.00D-01 BMatC= 7.15D-11 BMatP= 1.02D-09
 IDIUse=1 WtCom= 1.00D+00 WtEn= 0.00D+00
 Coeff-Com: -0.630D-03 0.217D-02-0.368D-02-0.257D-02 0.920D-01-0.523D+00
 Coeff-Com:  0.144D+01
 Coeff:     -0.630D-03 0.217D-02-0.368D-02-0.257D-02 0.920D-01-0.523D+00
 Coeff:      0.144D+01
 Gap=     0.349 Goal=   None    Shift=    0.000
 RMSDP=1.92D-06 MaxDP=1.04D-05 DE=-9.41D-09 OVMax= 1.76D-05

 Cycle   8  Pass 1  IDiag  3:
 E= 0.477464942494947E-01 Delta-E=       -0.000000000610 Rises=F Damp=F
 DIIS: error= 3.78D-07 at cycle   8 NSaved=   8.
 NSaved= 8 IEnMin= 8 EnMin= 0.477464942494947E-01 IErMin= 8 ErrMin= 3.78D-07
 ErrMax= 3.78D-07  0.00D+00 EMaxC= 1.00D-01 BMatC= 4.89D-12 BMatP= 7.15D-11
 IDIUse=1 WtCom= 1.00D+00 WtEn= 0.00D+00
 Coeff-Com:  0.105D-02-0.361D-02 0.687D-02-0.882D-02-0.111D-01 0.153D+00
 Coeff-Com: -0.637D+00 0.150D+01
 Coeff:      0.105D-02-0.361D-02 0.687D-02-0.882D-02-0.111D-01 0.153D+00
 Coeff:     -0.637D+00 0.150D+01
 Gap=     0.349 Goal=   None    Shift=    0.000
 RMSDP=5.01D-07 MaxDP=3.09D-06 DE=-6.10D-10 OVMax= 5.89D-06

 Cycle   9  Pass 1  IDiag  3:
 E= 0.477464942056685E-01 Delta-E=       -0.000000000044 Rises=F Damp=F
 DIIS: error= 1.11D-07 at cycle   9 NSaved=   9.
 NSaved= 9 IEnMin= 9 EnMin= 0.477464942056685E-01 IErMin= 9 ErrMin= 1.11D-07
 ErrMax= 1.11D-07  0.00D+00 EMaxC= 1.00D-01 BMatC= 4.34D-13 BMatP= 4.89D-12
 IDIUse=1 WtCom= 1.00D+00 WtEn= 0.00D+00
 Coeff-Com: -0.421D-03 0.145D-02-0.278D-02 0.385D-02 0.865D-03-0.426D-01
 Coeff-Com:  0.215D+00-0.727D+00 0.155D+01
 Coeff:     -0.421D-03 0.145D-02-0.278D-02 0.385D-02 0.865D-03-0.426D-01
 Coeff:      0.215D+00-0.727D+00 0.155D+01
 Gap=     0.349 Goal=   None    Shift=    0.000
 RMSDP=1.70D-07 MaxDP=9.73D-07 DE=-4.38D-11 OVMax= 2.48D-06

 Cycle  10  Pass 1  IDiag  3:
 E= 0.477464942006236E-01 Delta-E=       -0.000000000005 Rises=F Damp=F
 DIIS: error= 3.85D-08 at cycle  10 NSaved=  10.
 NSaved=10 IEnMin=10 EnMin= 0.477464942006236E-01 IErMin=10 ErrMin= 3.85D-08
 ErrMax= 3.85D-08  0.00D+00 EMaxC= 1.00D-01 BMatC= 5.12D-14 BMatP= 4.34D-13
 IDIUse=1 WtCom= 1.00D+00 WtEn= 0.00D+00
 Coeff-Com:  0.106D-03-0.366D-03 0.704D-03-0.103D-02 0.520D-03 0.692D-02
 Coeff-Com: -0.489D-01 0.239D+00-0.873D+00 0.168D+01
 Coeff:      0.106D-03-0.366D-03 0.704D-03-0.103D-02 0.520D-03 0.692D-02
 Coeff:     -0.489D-01 0.239D+00-0.873D+00 0.168D+01
 Gap=     0.349 Goal=   None    Shift=    0.000
 RMSDP=7.08D-08 MaxDP=4.87D-07 DE=-5.04D-12 OVMax= 1.08D-06

 Cycle  11  Pass 1  IDiag  3:
 E= 0.477464942002399E-01 Delta-E=        0.000000000000 Rises=F Damp=F
 DIIS: error= 7.97D-09 at cycle  11 NSaved=  11.
 NSaved=11 IEnMin=11 EnMin= 0.477464942002399E-01 IErMin=11 ErrMin= 7.97D-09
 ErrMax= 7.97D-09  0.00D+00 EMaxC= 1.00D-01 BMatC= 3.59D-15 BMatP= 5.12D-14
 IDIUse=1 WtCom= 1.00D+00 WtEn= 0.00D+00
 Coeff-Com: -0.136D-04 0.468D-04-0.903D-04 0.133D-03-0.113D-03-0.589D-03
 Coeff-Com:  0.728D-02-0.548D-01 0.284D+00-0.788D+00 0.155D+01
 Coeff:     -0.136D-04 0.468D-04-0.903D-04 0.133D-03-0.113D-03-0.589D-03
 Coeff:      0.728D-02-0.548D-01 0.284D+00-0.788D+00 0.155D+01
 Gap=     0.349 Goal=   None    Shift=    0.000
 RMSDP=1.73D-08 MaxDP=1.19D-07 DE=-3.84D-13 OVMax= 2.52D-07

 Cycle  12  Pass 1  IDiag  3:
 E= 0.477464942000694E-01 Delta-E=        0.000000000000 Rises=F Damp=F
 DIIS: error= 1.66D-09 at cycle  12 NSaved=  12.
 NSaved=12 IEnMin=12 EnMin= 0.477464942000694E-01 IErMin=12 ErrMin= 1.66D-09
 ErrMax= 1.66D-09  0.00D+00 EMaxC= 1.00D-01 BMatC= 2.47D-16 BMatP= 3.59D-15
 IDIUse=1 WtCom= 1.00D+00 WtEn= 0.00D+00
 Coeff-Com:  0.192D-05-0.651D-05 0.123D-04-0.125D-04-0.282D-04 0.285D-03
 Coeff-Com: -0.225D-02 0.164D-01-0.900D-01 0.275D+00-0.743D+00 0.154D+01
 Coeff:      0.192D-05-0.651D-05 0.123D-04-0.125D-04-0.282D-04 0.285D-03
 Coeff:     -0.225D-02 0.164D-01-0.900D-01 0.275D+00-0.743D+00 0.154D+01
 Gap=     0.349 Goal=   None    Shift=    0.000
 RMSDP=4.02D-09 MaxDP=2.28D-08 DE=-1.71D-13 OVMax= 5.01D-08

 Cycle  13  Pass 2  IDiag  1:
 SCF Done:  E(RAM1) =  0.477464942001E-01 A.U. after   13 cycles
            NFock= 12  Conv=0.40D-08     -V/T= 1.0033
 KE=-1.445893136890D+01 PE=-1.552362265244D+02 EE= 7.639994916685D+01
 Leave Link  502 at Wed Mar 23 16:29:23 2016, MaxMem=    33554432 cpu:         0.0
 (Enter /opt/g09/g09/l701.exe)
 Compute integral first derivatives.
 ... and contract with generalized density number  0.
 Leave Link  701 at Wed Mar 23 16:29:23 2016, MaxMem=    33554432 cpu:         0.0
 (Enter /opt/g09/g09/l702.exe)
 L702 exits ... SP integral derivatives will be done elsewhere.
 Leave Link  702 at Wed Mar 23 16:29:23 2016, MaxMem=    33554432 cpu:         0.0
 (Enter /opt/g09/g09/l703.exe)
 Compute integral first derivatives, UseDBF=F ICtDFT=           0.
 Integral derivatives from FoFJK, PRISM(SPDF).
 Calling FoFJK, ICntrl=      2127 FMM=F ISym2X=0 I1Cent= 0 IOpClX= 0 NMat=1 NMatS=1 NMatT=0.
 FoFJK:  IHMeth= 8 ICntrl=    2127 DoSepK=F KAlg= 0 I1Cent=   0 FoldK=F
 IRaf=         0 NMat=   1 IRICut=       1 DoRegI=T DoRafI=F ISym2E= 0.
 FoFCou: FMM=F IPFlag=           0 FMFlag=      100000 FMFlg1=         800
         NFxFlg=           0 DoJE=F BraDBF=F KetDBF=F FulRan=T
         wScrn=  0.000000 ICntrl=    2127 IOpCl=  0 I1Cent=           0 NGrid=           0
         NMat0=    1 NMatS0=      1 NMatT0=    0 NMatD0=    1 NMtDS0=    0 NMtDT0=    0
 Symmetry not used in FoFCou.
 Leave Link  703 at Wed Mar 23 16:29:23 2016, MaxMem=    33554432 cpu:         0.0
 (Enter /opt/g09/g09/l716.exe)
 Dipole        =-1.83413013D-01-1.72551875D-03 5.57007533D-03
 ***** Axes restored to original set *****
 -------------------------------------------------------------------
 Center     Atomic                   Forces (Hartrees/Bohr)
 Number     Number              X              Y              Z
 -------------------------------------------------------------------
      1        6          -0.001497106   -0.000424194   -0.000146422
      2        6           0.003405750   -0.001470659    0.001418113
      3        6          -0.007246072   -0.004388785    0.004573574
      4        6           0.002656688    0.001846006   -0.004074040
      5        1          -0.001051221   -0.001358067    0.000391733
      6        1           0.001347340    0.001900666   -0.000696699
      7        1          -0.000986891    0.001452164   -0.000593932
      8        1          -0.000884141   -0.000015392    0.000977311
      9       16           0.004255652    0.002458260   -0.001849637
 -------------------------------------------------------------------
 Cartesian Forces:  Max     0.007246072 RMS     0.002580032
 Leave Link  716 at Wed Mar 23 16:29:23 2016, MaxMem=    33554432 cpu:         0.0
 (Enter /opt/g09/g09/l103.exe)

 GradGradGradGradGradGradGradGradGradGradGradGradGradGradGradGradGradGrad
 Berny optimization.
 Using GEDIIS/GDIIS optimizer.
 FormGI is forming the generalized inverse of G from B-inverse, IUseBI=4.
 Internal  Forces:  Max     0.004550045 RMS     0.001265991
 Search for a local minimum.
 Step number   3 out of a maximum of   48
 All quantities printed in internal units (Hartrees-Bohrs-Radians)
 RMS Force = .12660D-02 SwitMx=.10000D-02 MixMth= 1
 Mixed Optimization -- RFO/linear search
 Update second derivatives using D2CorX and points    2    3
 DE= -2.15D-03 DEPred=-2.36D-03 R= 9.09D-01
 TightC=F SS=  1.41D+00  RLast= 2.98D-01 DXNew= 8.4853D-01 8.9424D-01
 Trust test= 9.09D-01 RLast= 2.98D-01 DXMaxT set to 8.49D-01
[...]
     X X   X                                                           X  X                                 X  X                     
     X X   X                                                           X                                    X  X                     
       X                                                               X                                    X  X                     
       X                                                               X                                    X  X                     
       X                                                               X                                    X  X                     
       X                                                               X                                    X  X                     
       X                                                               X                                       X                     
       X                                                               X                                       X                     
       X                                                               X                                       X                     
       X                                                               X                                       X                     
       X                                                                                                       X                     
       X                                                                                                                             
       X                                                                                                                             
 
 ***** Axes restored to original set *****
 -------------------------------------------------------------------
 Center     Atomic                   Forces (Hartrees/Bohr)
 Number     Number              X              Y              Z
 -------------------------------------------------------------------
      1        6           0.010761856    0.003841177   -0.016164367
      2        6          -0.033501880    0.033147788    0.001854456
      3        6          -0.105865321    0.025939797   -0.015333146
      4        6           0.058121210   -0.041234882    0.009943063
      5        1           0.022280785    0.008835662   -0.001357091
      6        1          -0.003366489    0.014217785    0.005151128
      7        1          -0.003977036   -0.013807954   -0.002416374
      8        1           0.001769624   -0.010938767    0.004199156
      9       16           0.053777252   -0.020000606    0.014123176
 -------------------------------------------------------------------
 Cartesian Forces:  Max     0.105865321 RMS     0.030166037
 Z-matrix is all fixed cartesians, so copy forces.
 Force constants in Cartesian coordinates: 
                1             2             3             4             5 
      1  0.762784D+00
      2 -0.580599D-01  0.780125D+00
      3 -0.794253D-02  0.337356D-02  0.129465D+00
      4 -0.346700D+00 -0.100153D+00 -0.683836D-02  0.451186D+00
      5 -0.136115D+00 -0.120963D+00 -0.458319D-02  0.211500D+00  0.618108D+00
      6 -0.409969D-02 -0.538243D-03 -0.600528D-01  0.106808D-02 -0.345448D-01
      7  0.166599D-01  0.137436D+00  0.736369D-02  0.523329D-01 -0.513619D-01
      8  0.689686D-01 -0.726794D-01 -0.404964D-02 -0.470274D-02 -0.740628D-01
      9  0.540222D-02 -0.463226D-02  0.542275D-02 -0.329305D-02 -0.947636D-02
     10 -0.781198D-01 -0.644042D-01 -0.485592D-02 -0.490533D-01 -0.495066D-01
     11  0.370289D-01 -0.409288D+00  0.110126D-01 -0.250694D-01 -0.621160D-01
     12 -0.205874D-02  0.114104D-01 -0.659932D-01  0.436550D-02 -0.831972D-03
     13  0.105097D-02 -0.761174D-02 -0.301947D-03 -0.159355D-02 -0.564697D-03
     14 -0.266439D-01 -0.281215D-01 -0.211588D-03 -0.199081D-02 -0.183637D-02
     15  0.156712D-03  0.182026D-02  0.590634D-02  0.986099D-03  0.103103D-02
     16 -0.359566D-02  0.106348D-02 -0.177167D-03  0.126751D-02  0.191139D-03
     17  0.132282D-02  0.150404D-03 -0.134888D-02 -0.335369D-02  0.395522D-02
     18  0.126208D-02 -0.724906D-03  0.760068D-02 -0.172838D-02  0.459382D-03
     19 -0.119088D-01 -0.319438D-01  0.156327D-02 -0.305751D-01 -0.491422D-01
     20 -0.101145D-01 -0.154777D-01  0.233736D-02 -0.582102D-01 -0.356046D+00
     21 -0.156710D-02 -0.436179D-03  0.983226D-02  0.467560D-02  0.406304D-01
     22 -0.258714D+00  0.131379D+00  0.156072D-01 -0.330647D-01  0.100869D-01
     23  0.128392D+00 -0.108721D+00 -0.848845D-02 -0.104035D-01  0.782071D-02
     24  0.170312D-01 -0.799478D-02 -0.395600D-01  0.296286D-04 -0.102879D-02
     25 -0.814573D-01 -0.770570D-02 -0.441803D-02 -0.437991D-01  0.649128D-01
     26 -0.477847D-02 -0.250241D-01  0.195817D-02 -0.761637D-02 -0.148596D-01
     27 -0.818411D-02 -0.227809D-02  0.737984D-02  0.734829D-03  0.834418D-02
                6             7             8             9            10 
      6  0.122862D+00
      7 -0.227077D-02  0.475737D+00
      8 -0.236878D-02 -0.369838D+00  0.621904D+00
      9  0.750573D-02 -0.667169D-01  0.542415D-01  0.925154D-01
     10  0.336860D-02 -0.447426D+00  0.247097D+00  0.514294D-01  0.912228D+00
     11 -0.246885D-02  0.483457D-01 -0.129272D+00 -0.196375D-01  0.570899D-01
     12  0.758574D-02  0.411092D-01 -0.272482D-01 -0.426195D-01 -0.446758D-01
     13  0.263017D-03 -0.433327D-01 -0.108538D-01  0.104333D-02 -0.264570D+00
     14  0.191481D-04  0.118968D-01  0.937556D-02 -0.301132D-03 -0.153499D+00
     15  0.384055D-02  0.249909D-02  0.168556D-02  0.106092D-01 -0.657660D-04
     16  0.209666D-03 -0.380109D-01  0.712276D-01  0.747812D-02 -0.125345D-01
     17  0.313344D-04  0.899584D-01 -0.347168D+00 -0.270049D-01  0.791335D-02
     18 -0.891089D-03  0.989819D-02 -0.260955D-01 -0.384490D-01  0.263963D-04
     19  0.677092D-02  0.882297D-03  0.106568D-02  0.178497D-03 -0.363725D-02
     20  0.362901D-01  0.125561D-02  0.113086D-02  0.580924D-03 -0.123945D-02
     21 -0.394308D-01  0.414944D-02  0.291185D-03  0.233801D-02 -0.296935D-02
     22  0.658374D-03 -0.417283D-02  0.130912D-02  0.894721D-03  0.265153D-02
     23  0.260406D-04  0.363675D-02 -0.384938D-02  0.805917D-04  0.249326D-01
     24  0.673411D-02 -0.305437D-02  0.104600D-02  0.483520D-02  0.184238D-02
     25 -0.596857D-02 -0.126696D-01 -0.427404D-02  0.358376D-02 -0.595384D-01
     26  0.355412D-02  0.128671D+00 -0.537871D-02  0.614902D-02 -0.683838D-01
     27 -0.481538D-01  0.702278D-02  0.249807D-02 -0.421583D-01 -0.410003D-02
               11            12            13            14            15 
     11  0.694373D+00
     12  0.153808D-01  0.100209D+00
     13 -0.152332D+00  0.281809D-03  0.306269D+00
     14 -0.126648D+00 -0.367474D-03  0.168803D+00  0.151803D+00
     15 -0.467472D-02 -0.339361D-01 -0.200090D-02  0.828148D-03  0.132109D-01
     16  0.322388D-01  0.393834D-02 -0.747712D-04  0.369762D-03 -0.980780D-04
     17 -0.132795D-01 -0.255721D-02  0.391702D-03  0.267855D-03  0.228928D-03
     18 -0.180147D-02  0.121988D-01  0.690777D-04  0.165585D-04 -0.160302D-02
     19 -0.597461D-03 -0.337430D-03  0.208898D-03 -0.472423D-03 -0.211340D-04
     20  0.172192D-03  0.490702D-03 -0.474966D-04 -0.364680D-03 -0.650033D-04
     21  0.364154D-02  0.319703D-02  0.211725D-04 -0.408233D-04 -0.479904D-03
     22  0.390476D-02  0.360289D-03  0.622457D-03  0.593029D-04 -0.321996D-03
     23 -0.252442D-01 -0.527303D-03 -0.782900D-05 -0.957533D-03  0.457500D-04
     24 -0.294195D-02  0.992871D-02  0.230137D-05  0.585122D-04 -0.670016D-03
     25 -0.609255D-03 -0.298283D-02  0.141948D-02  0.147816D-02 -0.113409D-02
     26  0.713024D-01  0.425025D-02  0.222356D-02 -0.351851D-02 -0.899955D-03
     27  0.148961D-02  0.942976D-02  0.622007D-03 -0.136617D-05  0.312213D-02
               16            17            18            19            20 
     16  0.569661D-01
     17 -0.914965D-01  0.377502D+00
     18 -0.863659D-02  0.336492D-01  0.159263D-01
     19 -0.124700D-03 -0.999958D-04  0.693861D-04  0.477971D-01
     20 -0.482415D-04 -0.349428D-03 -0.341416D-03  0.668941D-01  0.385173D+00
     21  0.441979D-03  0.278462D-03 -0.148657D-02 -0.668086D-02 -0.411681D-01
     22  0.633263D-05  0.748766D-04  0.105980D-03  0.591052D-04 -0.210407D-03
     23  0.431178D-03 -0.398656D-03 -0.390080D-03 -0.276549D-03  0.453690D-03
     24 -0.140232D-05  0.309510D-03 -0.208798D-02  0.432945D-04 -0.237414D-03
     25 -0.389928D-02 -0.471096D-02 -0.106633D-02 -0.270131D-02  0.172050D-02
     26 -0.139772D-01 -0.206794D-01 -0.477185D-02  0.145726D-01 -0.146918D-01
     27 -0.315489D-02 -0.358643D-02  0.879170D-02 -0.158593D-02  0.211279D-02
               21            22            23            24            25 
     21  0.184943D-01
     22  0.132928D-03  0.293059D+00
     23 -0.159335D-03 -0.144622D+00  0.133007D+00
     24 -0.832182D-03 -0.170311D-01  0.967085D-02  0.187069D-01
     25  0.179614D-02 -0.446894D-03 -0.208270D-02  0.113797D-02  0.203093D+00
     26 -0.303719D-02 -0.198180D-02 -0.211039D-02  0.111817D-02 -0.487289D-01
     27  0.836774D-02 -0.406425D-03 -0.258037D-03  0.294521D-02  0.905196D-02
               26            27 
     26  0.149601D-01
     27 -0.832080D-02  0.502762D-01
 Leave Link  716 at Wed Mar 23 16:29:24 2016, MaxMem=    33554432 cpu:         0.0
 (Enter /opt/g09/g09/l103.exe)

 GradGradGradGradGradGradGradGradGradGradGradGradGradGradGradGradGradGrad
 Berny optimization.
 Search for a local minimum.
 Step number   1 out of a maximum of    2
 All quantities printed in internal units (Hartrees-Bohrs-Radians)
 Second derivative matrix not updated -- analytic derivatives used.
 ITU=  0
     Eigenvalues ---   -0.08774   0.00298   0.00649   0.03634   0.04217
     Eigenvalues ---    0.04506   0.04679   0.07240   0.11636   0.12900
     Eigenvalues ---    0.16085   0.16691   0.22556   0.25125   0.41731
     Eigenvalues ---    0.50912   0.74657   0.90839   1.19507   1.20796
     Eigenvalues ---    1.54223
 Eigenvalue     1 is  -8.77D-02 should be greater than     0.000000 Eigenvector:
                          Y9        X3        Y3        X5        X2
   1                    0.63810  -0.45632  -0.33411  -0.21001   0.20521
                          Y2        X9        Y4        X1        X8
   1                   -0.18331   0.17288  -0.15459   0.15061   0.13629
 Quadratic step=1.707D+00 exceeds max=3.000D-01 adjusted using Lamda=-1.123D-01.
 Angle between NR and scaled steps=  63.65 degrees.
 Angle between quadratic step and forces=  36.97 degrees.
 Linear search not attempted -- first point.
 TrRot=  0.004374  0.001472  0.002884  0.507088  0.002980 -0.505263
 Variable       Old X    -DE/DX   Delta X   Delta X   Delta X     New X
                                 (Linear)    (Quad)   (Total)
    X1        1.65282   0.01076   0.00000   0.02568   0.03230   1.68511
    Y1       -1.23763   0.00384   0.00000   0.01281   0.01735  -1.22028
    Z1        0.04510  -0.01616   0.00000  -0.04131  -0.04104   0.00407
    X2       -0.80939  -0.03350   0.00000  -0.04106  -0.03253  -0.84192
    Y2       -2.32897   0.03315   0.00000   0.03736   0.03726  -2.29170
    Z2       -0.02234   0.00185   0.00000   0.00741   0.01582  -0.00652
    X3       -0.59918  -0.10587   0.00000  -0.18060  -0.18027  -0.77945
    Y3        2.42884   0.02594   0.00000  -0.02773  -0.02750   2.40134
    Z3        0.22223  -0.01533   0.00000  -0.09261  -0.09116   0.13107
    X4        1.68070   0.05812   0.00000   0.02028   0.02226   1.70296
    Y4        1.39883  -0.04123   0.00000  -0.03319  -0.02856   1.37028
    Z4       -0.01288   0.00994   0.00000   0.05554   0.05202   0.03914
    X5        3.37572   0.02228   0.00000   0.04103   0.04081   3.41654
    Y5        2.50686   0.00884   0.00000   0.00745   0.01516   2.52202
    Z5       -0.00560  -0.00136   0.00000   0.01495   0.00530  -0.00030
    X6       -1.07567  -0.00337   0.00000  -0.01659  -0.01927  -1.09495
    Y6        4.39039   0.01422   0.00000   0.03923   0.03927   4.42966
    Z6        0.38669   0.00515   0.00000   0.00784   0.00718   0.39386
    X7       -1.14640  -0.00398   0.00000  -0.01486  -0.00214  -1.14854
    Y7       -4.31219  -0.01381   0.00000  -0.00322  -0.00360  -4.31579
    Z7        0.21569  -0.00242   0.00000  -0.03857  -0.02643   0.18926
    X8        3.44542   0.00177   0.00000  -0.02179  -0.01340   3.43202
    Y8       -2.24660  -0.01094   0.00000  -0.07454  -0.06693  -2.31353
    Z8       -0.08840   0.00420   0.00000   0.01095   0.00825  -0.08015
    X9       -2.98339   0.05378   0.00000   0.14844   0.15224  -2.83115
    Y9        0.07234  -0.02000   0.00000   0.02146   0.01753   0.08988
    Z9       -0.22047   0.01412   0.00000   0.05992   0.07006  -0.15041
         Item               Value     Threshold  Converged?
 Maximum Force            0.105865     0.000450     NO 
 RMS     Force            0.030166     0.000300     NO 
 Maximum Displacement     0.180268     0.001800     NO 
 RMS     Displacement     0.057423     0.001200     NO 
 Predicted change in Energy=-2.503308D-02
 GradGradGradGradGradGradGradGradGradGradGradGradGradGradGradGradGradGrad

 Leave Link  103 at Wed Mar 23 16:29:24 2016, MaxMem=    33554432 cpu:         0.0
 (Enter /opt/g09/g09/l9999.exe)
 1\1\GINC-LINUX-CBNE\Freq\RAM1-Full\STO-3G\C4H4S1\DUSTIN\23-Mar-2016\0\
 \#P AM1(Input,Print) CIS(Singlets,NStates=10) pop(full) freq\\best1\\0
 ,1\C,0.874634,-0.654928,0.023867\C,-0.428309,-1.232437,-0.011824\C,-0.
 317074,1.285286,0.1176\C,0.889386,0.740231,-0.006814\H,1.786356,1.3265
 74,-0.002963\H,-0.569221,2.323294,0.204625\H,-0.606647,-2.281913,0.114
 14\H,1.823237,-1.188848,-0.046778\S,-1.578742,0.038282,-0.116668\\Vers
 ion=ES64L-G09RevD.01\State=1-A\HF=0.0652767\RMSD=5.146e-09\RMSF=3.017e
 -02\ZeroPoint=0.063091\Thermal=0.0672788\Dipole=0.8898643,-0.2144777,0
 .1488715\DipoleDeriv=-0.3631117,-0.0388181,-0.0298636,-0.3468817,0.096
 8799,-0.03793,-0.0196312,0.0215228,-0.2024022,1.0195589,0.4623513,0.17
 6007,-0.6832244,-0.4968455,-0.1373665,0.0646917,0.010197,-0.0399641,0.
 0466028,-1.1939842,-0.021989,-0.052468,-0.2230411,-0.0122943,0.0159824
 ,-0.0561973,-0.1065724,-0.383192,0.6292281,-0.0080541,0.179029,-0.9833
 965,0.0108311,0.0249287,-0.0542723,-0.3316748,0.1973587,0.0692338,0.00
 26559,0.1017527,0.1695977,-0.0028465,-0.0104717,-0.046963,0.2205239,0.
 0906062,-0.0823225,-0.0155828,0.0038799,0.3228264,0.0013705,-0.0297858
 ,0.0751165,0.239932,0.0703233,0.0884745,-0.0141612,0.0206231,0.3189118
 ,-0.0015321,-0.0040166,0.0139164,0.222484,0.2495422,-0.0975238,-0.0008
 549,-0.0747585,0.1512025,0.0044797,-0.0022362,0.010718,0.2252033,-0.92
 7691,0.1633574,-0.088154,0.8520487,0.6438651,0.175288,-0.0394608,0.025
 9635,-0.2275259\Polar=70.6357695,1.6774625,69.0629383,1.7949707,2.4785
 362,12.77511\PG=C01 [X(C4H4S1)]\NImag=2\\0.76278427,-0.05805989,0.7801
 2517,-0.00794253,0.00337356,0.12946458,-0.34670010,-0.10015320,-0.0068
 3836,0.45118552,-0.13611548,-0.12096344,-0.00458319,0.21149980,0.61810
 841,-0.00409969,-0.00053824,-0.06005276,0.00106808,-0.03454478,0.12286
 179,0.01665988,0.13743594,0.00736369,0.05233292,-0.05136189,-0.0022707
 7,0.47573679,0.06896864,-0.07267940,-0.00404964,-0.00470274,-0.0740627
 6,-0.00236878,-0.36983751,0.62190415,0.00540222,-0.00463226,0.00542275
 ,-0.00329305,-0.00947636,0.00750573,-0.06671692,0.05424147,0.09251538,
 -0.07811982,-0.06440417,-0.00485592,-0.04905328,-0.04950661,0.00336860
 ,-0.44742642,0.24709730,0.05142938,0.91222776,0.03702894,-0.40928827,0
 .01101264,-0.02506944,-0.06211602,-0.00246885,0.04834570,-0.12927191,-
 0.01963747,0.05708990,0.69437343,-0.00205874,0.01141042,-0.06599323,0.
 00436550,-0.00083197,0.00758574,0.04110916,-0.02724822,-0.04261951,-0.
 04467579,0.01538085,0.10020944,0.00105097,-0.00761174,-0.00030195,-0.0
 0159355,-0.00056470,0.00026302,-0.04333266,-0.01085379,0.00104333,-0.2
 6456966,-0.15233228,0.00028181,0.30626896,-0.02664395,-0.02812153,-0.0
 0021159,-0.00199081,-0.00183637,0.00001915,0.01189685,0.00937556,-0.00
 030113,-0.15349940,-0.12664780,-0.00036747,0.16880259,0.15180299,0.000
 15671,0.00182026,0.00590634,0.00098610,0.00103103,0.00384055,0.0024990
 9,0.00168556,0.01060919,-0.00006577,-0.00467472,-0.03393614,-0.0020009
 0,0.00082815,0.01321090,-0.00359566,0.00106348,-0.00017717,0.00126751,
 0.00019114,0.00020967,-0.03801088,0.07122759,0.00747812,-0.01253450,0.
 03223876,0.00393834,-0.00007477,0.00036976,-0.00009808,0.05696611,0.00
 132282,0.00015040,-0.00134888,-0.00335369,0.00395522,0.00003133,0.0899
 5838,-0.34716848,-0.02700488,0.00791335,-0.01327955,-0.00255721,0.0003
 9170,0.00026785,0.00022893,-0.09149645,0.37750208,0.00126208,-0.000724
 91,0.00760068,-0.00172838,0.00045938,-0.00089109,0.00989819,-0.0260955
 5,-0.03844904,0.00002640,-0.00180147,0.01219880,0.00006908,0.00001656,
 -0.00160302,-0.00863659,0.03364923,0.01592630,-0.01190883,-0.03194381,
 0.00156327,-0.03057514,-0.04914224,0.00677092,0.00088230,0.00106568,0.
 00017850,-0.00363725,-0.00059746,-0.00033743,0.00020890,-0.00047242,-0
 .00002113,-0.00012470,-0.00010000,0.00006939,0.04779708,-0.01011446,-0
 .01547773,0.00233736,-0.05821017,-0.35604616,0.03629012,0.00125561,0.0
 0113086,0.00058092,-0.00123945,0.00017219,0.00049070,-0.00004750,-0.00
 036468,-0.00006500,-0.00004824,-0.00034943,-0.00034142,0.06689409,0.38
 517310,-0.00156710,-0.00043618,0.00983226,0.00467560,0.04063045,-0.039
 43080,0.00414944,0.00029119,0.00233801,-0.00296935,0.00364154,0.003197
 03,0.00002117,-0.00004082,-0.00047990,0.00044198,0.00027846,-0.0014865
 7,-0.00668086,-0.04116809,0.01849430,-0.25871378,0.13137918,0.01560719
 ,-0.03306469,0.01008692,0.00065837,-0.00417283,0.00130912,0.00089472,0
 .00265153,0.00390476,0.00036029,0.00062246,0.00005930,-0.00032200,0.00
 000633,0.00007488,0.00010598,0.00005911,-0.00021041,0.00013293,0.29305
 895,0.12839194,-0.10872114,-0.00848845,-0.01040348,0.00782071,0.000026
 04,0.00363675,-0.00384938,0.00008059,0.02493260,-0.02524420,-0.0005273
 0,-0.00000783,-0.00095753,0.00004575,0.00043118,-0.00039866,-0.0003900
 8,-0.00027655,0.00045369,-0.00015933,-0.14462197,0.13300687,0.01703119
 ,-0.00799478,-0.03956002,0.00002963,-0.00102879,0.00673411,-0.00305437
 ,0.00104600,0.00483520,0.00184238,-0.00294195,0.00992871,0.00000230,0.
 00005851,-0.00067002,-0.00000140,0.00030951,-0.00208798,0.00004329,-0.
 00023741,-0.00083218,-0.01703108,0.00967085,0.01870693,-0.08145728,-0.
 00770570,-0.00441803,-0.04379912,0.06491285,-0.00596857,-0.01266962,-0
 .00427404,0.00358376,-0.05953840,-0.00060926,-0.00298283,0.00141948,0.
 00147816,-0.00113409,-0.00389928,-0.00471096,-0.00106633,-0.00270131,0
 .00172050,0.00179614,-0.00044689,-0.00208270,0.00113797,0.20309260,-0.
 00477847,-0.02502414,0.00195817,-0.00761637,-0.01485963,0.00355412,0.1
 2867059,-0.00537871,0.00614902,-0.06838384,0.07130243,0.00425025,0.002
 22356,-0.00351851,-0.00089995,-0.01397725,-0.02067938,-0.00477185,0.01
 457262,-0.01469184,-0.00303719,-0.00198180,-0.00211039,0.00111817,-0.0
 4872886,0.01496005,-0.00818411,-0.00227809,0.00737984,0.00073483,0.008
 34418,-0.04815382,0.00702278,0.00249807,-0.04215833,-0.00410003,0.0014
 8961,0.00942976,0.00062201,-0.00000137,0.00312213,-0.00315489,-0.00358
 643,0.00879170,-0.00158593,0.00211279,0.00836774,-0.00040643,-0.000258
 04,0.00294521,0.00905196,-0.00832080,0.05027621\\-0.01076186,-0.003841
 18,0.01616437,0.03350188,-0.03314779,-0.00185446,0.10586532,-0.0259398
 0,0.01533315,-0.05812121,0.04123488,-0.00994306,-0.02228079,-0.0088356
 6,0.00135709,0.00336649,-0.01421779,-0.00515113,0.00397704,0.01380795,
 0.00241637,-0.00176962,0.01093877,-0.00419916,-0.05377725,0.02000061,-
 0.01412318\\\@


 ANYONE WHO IS NOT SHOCKED BY QUANTUM THEORY HAS
 NOT UNDERSTOOD IT. -- NIELS BOHR(1885-1962)
 Job cpu time:       0 days  0 hours  0 minutes  0.4 seconds.
 File lengths (MBytes):  RWF=      6 Int=      0 D2E=      0 Chk=      2 Scr=      1
 Normal termination of Gaussian 09 at Wed Mar 23 16:29:24 2016.
