 Entering Gaussian System, Link 0=g09
 Input=best_es.com
 Output=best_es.log
 Initial command:
 /home/dustin/Applications/g09/g09/l1.exe "/tmp/Gau-6140.inp" -scrdir="/tmp/"
 Entering Link 1 = /home/dustin/Applications/g09/g09/l1.exe PID=      6142.
  
 Copyright (c) 1988,1990,1992,1993,1995,1998,2003,2009,2013,
            Gaussian, Inc.  All Rights Reserved.
  
 This is part of the Gaussian(R) 09 program.  It is based on
 the Gaussian(R) 03 system (copyright 2003, Gaussian, Inc.),
 the Gaussian(R) 98 system (copyright 1998, Gaussian, Inc.),
 the Gaussian(R) 94 system (copyright 1995, Gaussian, Inc.),
 the Gaussian 92(TM) system (copyright 1992, Gaussian, Inc.),
 the Gaussian 90(TM) system (copyright 1990, Gaussian, Inc.),
 the Gaussian 88(TM) system (copyright 1988, Gaussian, Inc.),
 the Gaussian 86(TM) system (copyright 1986, Carnegie Mellon
 University), and the Gaussian 82(TM) system (copyright 1983,
 Carnegie Mellon University). Gaussian is a federally registered
 trademark of Gaussian, Inc.
  
 This software contains proprietary and confidential information,
 including trade secrets, belonging to Gaussian, Inc.
  
 This software is provided under written license and may be
 used, copied, transmitted, or stored only in accord with that
 written license.
  
 The following legend is applicable only to US Government
 contracts under FAR:
  
                    RESTRICTED RIGHTS LEGEND
  
 Use, reproduction and disclosure by the US Government is
 subject to restrictions as set forth in subparagraphs (a)
 and (c) of the Commercial Computer Software - Restricted
 Rights clause in FAR 52.227-19.
  
 Gaussian, Inc.
 340 Quinnipiac St., Bldg. 40, Wallingford CT 06492
  
  
 ---------------------------------------------------------------
 Warning -- This program may not be used in any manner that
 competes with the business of Gaussian, Inc. or will provide
 assistance to any competitor of Gaussian, Inc.  The licensee
 of this program is prohibited from giving any competitor of
 Gaussian, Inc. access to this program.  By using this program,
 the user acknowledges that Gaussian, Inc. is engaged in the
 business of creating and licensing software in the field of
 computational chemistry and represents and warrants to the
 licensee that it is not a competitor of Gaussian, Inc. and that
 it will not use this program in any manner prohibited above.
 ---------------------------------------------------------------
  

 Cite this work as:
 Gaussian 09, Revision D.01,
 M. J. Frisch, G. W. Trucks, H. B. Schlegel, G. E. Scuseria, 
 M. A. Robb, J. R. Cheeseman, G. Scalmani, V. Barone, B. Mennucci, 
 G. A. Petersson, H. Nakatsuji, M. Caricato, X. Li, H. P. Hratchian, 
 A. F. Izmaylov, J. Bloino, G. Zheng, J. L. Sonnenberg, M. Hada, 
 M. Ehara, K. Toyota, R. Fukuda, J. Hasegawa, M. Ishida, T. Nakajima, 
 Y. Honda, O. Kitao, H. Nakai, T. Vreven, J. A. Montgomery, Jr., 
 J. E. Peralta, F. Ogliaro, M. Bearpark, J. J. Heyd, E. Brothers, 
 K. N. Kudin, V. N. Staroverov, T. Keith, R. Kobayashi, J. Normand, 
 K. Raghavachari, A. Rendell, J. C. Burant, S. S. Iyengar, J. Tomasi, 
 M. Cossi, N. Rega, J. M. Millam, M. Klene, J. E. Knox, J. B. Cross, 
 V. Bakken, C. Adamo, J. Jaramillo, R. Gomperts, R. E. Stratmann, 
 O. Yazyev, A. J. Austin, R. Cammi, C. Pomelli, J. W. Ochterski, 
 R. L. Martin, K. Morokuma, V. G. Zakrzewski, G. A. Voth, 
 P. Salvador, J. J. Dannenberg, S. Dapprich, A. D. Daniels, 
 O. Farkas, J. B. Foresman, J. V. Ortiz, J. Cioslowski, 
 and D. J. Fox, Gaussian, Inc., Wallingford CT, 2013.
 
 ******************************************
 Gaussian 09:  ES64L-G09RevD.01 24-Apr-2013
                10-Apr-2016 
 ******************************************
 %chk=best
 -----------------------
 #P AM1(Input,Print) opt
 -----------------------
 1/14=-1,18=20,19=15,26=1,38=1/1,3;
 2/9=110,12=2,17=6,18=5,40=1/2;
 3/5=2,16=1,25=1,41=700000,71=1,135=100,136=1/1,2,3;
 4/35=1/1;
 5/5=2,35=1,38=5/2;
 6/7=2,8=2,9=2,10=2,28=1/1;
 7//1,2,3,16;
 1/14=-1,18=20,19=15,26=1/3(2);
 2/9=110/2;
 99//99;
 2/9=110/2;
 3/5=2,16=1,25=1,41=700000,71=1,135=20,136=1/1,2,3;
 4/5=5,16=3,35=1/1;
 5/5=2,35=1,38=5/2;
 7//1,2,3,16;
 1/14=-1,18=20,19=15,26=1/3(-5);
 2/9=110/2;
 6/7=2,8=2,9=2,10=2,19=2,28=1/1;
 99/9=1/99;
 Leave Link    1 at Sun Apr 10 09:54:40 2016, MaxMem=           0 cpu:         0.0
 (Enter /home/dustin/Applications/g09/g09/l101.exe)
 ----
 best
 ----
 Symbolic Z-matrix:
 Charge =  0 Multiplicity = 1
 6                     0.89569  -0.64954  -0.01175 
 6                    -0.38992  -1.24476  -0.02786 
 6                    -0.36844   1.33197   0.034 
 6                     0.92833   0.72436   0.04208 
 1                     1.77548   1.32853  -0.021 
 1                    -0.57706   2.32162   0.19953 
 1                    -0.57818  -2.23638   0.06545 
 1                     1.78074  -1.208    -0.08485 
 16                   -1.6383   -0.03736  -0.09517 
 
 NAtoms=      9 NQM=        9 NQMF=       0 NMMI=      0 NMMIF=      0
                NMic=       0 NMicF=      0.
                    Isotopes and Nuclear Properties:
 (Nuclear quadrupole moments (NQMom) in fm**2, nuclear magnetic moments (NMagM)
  in nuclear magnetons)

  Atom         1           2           3           4           5           6           7           8           9
 IAtWgt=          12          12          12          12           1           1           1           1          32
 AtmWgt=  12.0000000  12.0000000  12.0000000  12.0000000   1.0078250   1.0078250   1.0078250   1.0078250  31.9720718
 NucSpn=           0           0           0           0           1           1           1           1           0
 AtZEff=   0.0000000   0.0000000   0.0000000   0.0000000   0.0000000   0.0000000   0.0000000   0.0000000   0.0000000
 NQMom=    0.0000000   0.0000000   0.0000000   0.0000000   0.0000000   0.0000000   0.0000000   0.0000000   0.0000000
 NMagM=    0.0000000   0.0000000   0.0000000   0.0000000   2.7928460   2.7928460   2.7928460   2.7928460   0.0000000
 AtZNuc=   6.0000000   6.0000000   6.0000000   6.0000000   1.0000000   1.0000000   1.0000000   1.0000000  16.0000000
 Leave Link  101 at Sun Apr 10 09:54:40 2016, MaxMem=    33554432 cpu:         0.0
 (Enter /home/dustin/Applications/g09/g09/l103.exe)

 GradGradGradGradGradGradGradGradGradGradGradGradGradGradGradGradGradGrad
 Berny optimization.
 Initialization pass.
                           ----------------------------
                           !    Initial Parameters    !
                           ! (Angstroms and Degrees)  !
 --------------------------                            --------------------------
 ! Name  Definition              Value          Derivative Info.                !
 --------------------------------------------------------------------------------
 ! R1    R(1,2)                  1.4168         estimate D2E/DX2                !
 ! R2    R(1,4)                  1.3753         estimate D2E/DX2                !
 ! R3    R(1,8)                  1.0491         estimate D2E/DX2                !
 ! R4    R(2,7)                  1.0136         estimate D2E/DX2                !
 ! R5    R(2,9)                  1.738          estimate D2E/DX2                !
 ! R6    R(3,4)                  1.4321         estimate D2E/DX2                !
 ! R7    R(3,6)                  1.0249         estimate D2E/DX2                !
 ! R8    R(3,9)                  1.872          estimate D2E/DX2                !
 ! R9    R(4,5)                  1.0424         estimate D2E/DX2                !
 ! A1    A(2,1,4)              116.2096         estimate D2E/DX2                !
 ! A2    A(2,1,8)              122.758          estimate D2E/DX2                !
 ! A3    A(4,1,8)              120.9635         estimate D2E/DX2                !
 ! A4    A(1,2,7)              125.3434         estimate D2E/DX2                !
 ! A5    A(1,2,9)              111.1213         estimate D2E/DX2                !
 ! A6    A(7,2,9)              123.3508         estimate D2E/DX2                !
 ! A7    A(4,3,6)              126.3787         estimate D2E/DX2                !
 ! A8    A(4,3,9)              107.7156         estimate D2E/DX2                !
 ! A9    A(6,3,9)              125.4097         estimate D2E/DX2                !
 ! A10   A(1,4,3)              113.711          estimate D2E/DX2                !
 ! A11   A(1,4,5)              126.5759         estimate D2E/DX2                !
 ! A12   A(3,4,5)              119.3167         estimate D2E/DX2                !
 ! A13   A(2,9,3)               91.0455         estimate D2E/DX2                !
 ! D1    D(4,1,2,7)           -170.8754         estimate D2E/DX2                !
 ! D2    D(4,1,2,9)              4.3077         estimate D2E/DX2                !
 ! D3    D(8,1,2,7)             12.1186         estimate D2E/DX2                !
 ! D4    D(8,1,2,9)           -172.6983         estimate D2E/DX2                !
 ! D5    D(2,1,4,3)             -1.7175         estimate D2E/DX2                !
 ! D6    D(2,1,4,5)           -174.3808         estimate D2E/DX2                !
 ! D7    D(8,1,4,3)            175.3463         estimate D2E/DX2                !
 ! D8    D(8,1,4,5)              2.683          estimate D2E/DX2                !
 ! D9    D(1,2,9,3)             -4.1602         estimate D2E/DX2                !
 ! D10   D(7,2,9,3)            171.1363         estimate D2E/DX2                !
 ! D11   D(6,3,4,1)            170.7763         estimate D2E/DX2                !
 ! D12   D(6,3,4,5)            -15.9782         estimate D2E/DX2                !
 ! D13   D(9,3,4,1)             -1.4584         estimate D2E/DX2                !
 ! D14   D(9,3,4,5)            171.7871         estimate D2E/DX2                !
 ! D15   D(4,3,9,2)              3.2236         estimate D2E/DX2                !
 ! D16   D(6,3,9,2)           -169.1061         estimate D2E/DX2                !
 --------------------------------------------------------------------------------
 Trust Radius=3.00D-01 FncErr=1.00D-07 GrdErr=1.00D-07
 Number of steps in this run=     48 maximum allowed number of steps=    100.
 GradGradGradGradGradGradGradGradGradGradGradGradGradGradGradGradGradGrad

 Leave Link  103 at Sun Apr 10 09:54:40 2016, MaxMem=    33554432 cpu:         0.0
 (Enter /home/dustin/Applications/g09/g09/l202.exe)
                          Input orientation:                          
 ---------------------------------------------------------------------
 Center     Atomic      Atomic             Coordinates (Angstroms)
 Number     Number       Type             X           Y           Z
 ---------------------------------------------------------------------
      1          6           0        0.895691   -0.649535   -0.011750
      2          6           0       -0.389917   -1.244760   -0.027856
      3          6           0       -0.368442    1.331965    0.034004
      4          6           0        0.928331    0.724362    0.042084
      5          1           0        1.775476    1.328529   -0.021004
      6          1           0       -0.577063    2.321616    0.199533
      7          1           0       -0.578177   -2.236380    0.065446
      8          1           0        1.780736   -1.207996   -0.084847
      9         16           0       -1.638297   -0.037358   -0.095172
 ---------------------------------------------------------------------
                    Distance matrix (angstroms):
                    1          2          3          4          5
     1  C    0.000000
     2  C    1.416806   0.000000
     3  C    2.350844   2.577557   0.000000
     4  C    1.375339   2.370677   1.432085   0.000000
     5  H    2.164912   3.363152   2.144626   1.042426   0.000000
     6  H    3.322858   3.578515   1.024857   2.200505   2.563064
     7  H    2.167100   1.013636   3.574642   3.322063   4.272673
     8  H    1.049060   2.171712   3.329338   2.115824   2.537334
     9  S    2.608221   1.738046   1.871968   2.680790   3.677634
                    6          7          8          9
     6  H    0.000000
     7  H    4.559968   0.000000
     8  H    4.254204   2.577718   0.000000
     9  S    2.603426   2.446498   3.613902   0.000000
 Stoichiometry    C4H4S
 Framework group  C1[X(C4H4S)]
 Deg. of freedom    21
 Full point group                 C1      NOp   1
 Largest Abelian subgroup         C1      NOp   1
 Largest concise Abelian subgroup C1      NOp   1
                         Standard orientation:                         
 ---------------------------------------------------------------------
 Center     Atomic      Atomic             Coordinates (Angstroms)
 Number     Number       Type             X           Y           Z
 ---------------------------------------------------------------------
      1          6           0       -1.201663    0.814505   -0.009670
      2          6           0        0.146184    1.248988    0.033583
      3          6           0       -0.188737   -1.306689    0.021718
      4          6           0       -1.402017   -0.546092    0.004134
      5          1           0       -2.313116   -1.040925   -0.103999
      6          1           0       -0.107373   -2.318076    0.165965
      7          1           0        0.449388    2.207772    0.161095
      8          1           0       -2.009502    1.478166   -0.096137
      9         16           0        1.241125   -0.099450   -0.026595
 ---------------------------------------------------------------------
 Rotational constants (GHZ):      7.8004707      5.0299980      3.0623133
 Leave Link  202 at Sun Apr 10 09:54:40 2016, MaxMem=    33554432 cpu:         0.0
 (Enter /home/dustin/Applications/g09/g09/l301.exe)

 Semi-emprical parameters in input format:
 Method=8 CoreType=1 PeptideFC=0.0114505045 RIJScale=0.5291772086
 ****
 H       
 PQN=1 NValence=1 F0ss=0.4721553327 ZetaOverlap=1.1880780000 U=-0.4188110042
 Beta=-0.2268825074 CoreKO=1.0589197790 KON=0,0,0,1.0589197790 KON=1,0,1,1.0589197790
 KON=0,1,1,1.0589197790 KON=2,1,1,1.0589197790 EISol=-0.4188110042 EHeat=0.0830298228
 Alpha=1.5252601686
 GCore=0.0085277107,1.4001425905,2.2676713595
 GCore=0.0003534810,1.4001425905,3.4015070392
 GCore=-0.0012733648,0.5600570362,3.9684248791
 ****
 C       
 PQN=2,2 NValence=4 F0ss=0.4494442496 F0sp=0.4215147623 F0pp=0.3768030831 F2pp=0.1898715146
 G1sp=0.2679025821
 ZetaOverlap=1.8086650000,1.6851160000
 U=-1.9120180828,-1.4557965594
 Beta=-0.5775444233,-0.2836784428 DDN=0,1,0.8236736000 DDN=1,1,0.7268015000
 CoreKO=1.1124284736 KON=0,0,0,1.1124284736 KON=1,0,1,0.8219701441 KON=0,1,1,1.1124284736
 KON=2,1,1,0.7783928119 EISol=-4.4398989268 EHeat=0.2723305520 Alpha=1.4014062429
 DipHyp=1.6472524267
 GCore=0.0007885612,1.4001425905,3.0235618126
 GCore=0.0031892455,1.4001425905,3.4959933458
 GCore=-0.0013931594,1.4001425905,3.8739385724
 GCore=-0.0000875022,1.4001425905,5.0077742521
 ****
 S       
 PQN=3,3 NValence=6 F0ss=0.4331396397 F0sp=0.3183640731 F0pp=0.3136271218 F2pp=0.3456917167
 G1sp=0.2791629797
 ZetaOverlap=2.3665150000,1.6672630000,1.0000000000
 U=-2.0834683120,-1.7903186861
 Beta=-0.1440781557,-0.2905136336 DDN=0,1,0.9004265000 DDN=1,1,1.0036329000
 CoreKO=1.1543033468 KON=0,0,0,1.1543033468 KON=1,0,1,0.8464368816 KON=0,1,1,1.1543033468
 KON=2,1,1,0.7746001785 EISol=-7.0460287497 EHeat=0.1058151363 Alpha=1.3026480172
 DipHyp=1.8007493954
 GCore=-0.0353616377,1.2863644833,1.4563457902
 GCore=-0.0008238398,1.6425719595,2.8408498620
 GCore=0.0008565489,3.7964407093,3.7967867236
 ****
 
 Standard basis: VSTO-6G (5D, 7F)
 Ernie: Thresh=  0.10000D-02 Tol=  0.10000D-05 Strict=F.
  NNHCO=     0 NNPyr=     0 NCTC=     0               EPep=         0.000000000
    EC=        62.782278112  ECS=         1.630957740   EG=         0.148519482
   EHC=         0.000000000  EAt=       -26.480868474  AtH=         1.527256636
 EPDDG=         0.000000000  ECC=        64.561755334 EAtT=        28.008125109
 There are    24 symmetry adapted cartesian basis functions of A   symmetry.
 There are    24 symmetry adapted basis functions of A   symmetry.
    24 basis functions,   144 primitive gaussians,    24 cartesian basis functions
    13 alpha electrons       13 beta electrons
       nuclear repulsion energy        92.5698804429 Hartrees.
 IExCor=    0 DFT=F Ex=HF Corr=None ExCW=0 ScaHFX=  1.000000
 ScaDFX=  1.000000  1.000000  1.000000  1.000000 ScalE2=  1.000000  1.000000
 IRadAn=      0 IRanWt=     -1 IRanGd=            0 ICorTp=0 IEmpDi=  4
 Integral buffers will be    131072 words long.
 Regular integral format.
 Two-electron integral symmetry is turned off.
 Leave Link  301 at Sun Apr 10 09:54:40 2016, MaxMem=    33554432 cpu:         0.0
 (Enter /home/dustin/Applications/g09/g09/l302.exe)
 Do NDO integrals.
 NPDir=0 NMtPBC=     1 NCelOv=     1 NCel=       1 NClECP=     1 NCelD=      1
         NCelK=      1 NCelE2=     1 NClLst=     1 CellRange=     0.0.
 One-electron integrals computed using PRISM.
 NBasis=    24 RedAO= F EigKep=  0.00D+00  NBF=    24
 NBsUse=    24 1.00D-04 EigRej=  0.00D+00 NBFU=    24
 Leave Link  302 at Sun Apr 10 09:54:40 2016, MaxMem=    33554432 cpu:         0.0
 (Enter /home/dustin/Applications/g09/g09/l303.exe)
 DipDrv:  MaxL=1.
 Leave Link  303 at Sun Apr 10 09:54:40 2016, MaxMem=    33554432 cpu:         0.0
 (Enter /home/dustin/Applications/g09/g09/l401.exe)
 Simple Huckel Guess.
 JPrj=0 DoOrth=F DoCkMO=F.
 Leave Link  401 at Sun Apr 10 09:54:40 2016, MaxMem=    33554432 cpu:         0.0
 (Enter /home/dustin/Applications/g09/g09/l502.exe)
 Closed shell SCF:
 Using DIIS extrapolation, IDIIS=  1040.
 Overlap will be assumed to be unity.
 Two-electron integral symmetry not used.
 Keep J ints in memory in canonical form, NReq=888082.
 IVT=       79475 IEndB=       79475 NGot=    33554432 MDV=    33473473
 LenX=    33473473 LenY=    33472456
 Requested convergence on RMS density matrix=1.00D-08 within 128 cycles.
 Requested convergence on MAX density matrix=1.00D-06.
 Requested convergence on             energy=1.00D-06.
 No special actions if energy rises.
 FoFCou: FMM=F IPFlag=           0 FMFlag=           0 FMFlg1=           0
         NFxFlg=           0 DoJE=F BraDBF=F KetDBF=F FulRan=T
         wScrn=  0.000000 ICntrl=     600 IOpCl=  2 I1Cent=           0 NGrid=           0
         NMat0=    1 NMatS0=     54 NMatT0=    0 NMatD0=    1 NMtDS0=    0 NMtDT0=    0
 Symmetry not used in FoFCou.

 Cycle   1  Pass 1  IDiag  1:
 E= 0.265279744907815    
 DIIS: error= 4.01D-02 at cycle   1 NSaved=   1.
 NSaved= 1 IEnMin= 1 EnMin= 0.265279744907815     IErMin= 1 ErrMin= 4.01D-02
 ErrMax= 4.01D-02  0.00D+00 EMaxC= 1.00D-01 BMatC= 5.99D-02 BMatP= 5.99D-02
 IDIUse=3 WtCom= 5.99D-01 WtEn= 4.01D-01
 Coeff-Com:  0.100D+01
 Coeff-En:   0.100D+01
 Coeff:      0.100D+01
 GapD=    2.000 DampG=2.000 DampE=0.500 DampFc=1.0000 IDamp=-1.
 RMSDP=1.68D-02 MaxDP=1.19D-01              OVMax= 0.00D+00

 Cycle   2  Pass 1  IDiag  1:
 E= 0.987585256823991E-01 Delta-E=       -0.166521219225 Rises=F Damp=F
 DIIS: error= 1.10D-02 at cycle   2 NSaved=   2.
 NSaved= 2 IEnMin= 2 EnMin= 0.987585256823991E-01 IErMin= 2 ErrMin= 1.10D-02
 ErrMax= 1.10D-02  0.00D+00 EMaxC= 1.00D-01 BMatC= 4.69D-03 BMatP= 5.99D-02
 IDIUse=3 WtCom= 8.90D-01 WtEn= 1.10D-01
 Coeff-Com: -0.357D+00 0.136D+01
 Coeff-En:   0.000D+00 0.100D+01
 Coeff:     -0.318D+00 0.132D+01
 RMSDP=6.83D-03 MaxDP=6.19D-02 DE=-1.67D-01 OVMax= 0.00D+00

 Cycle   3  Pass 1  IDiag  3:
 E= 0.824974781323959E-01 Delta-E=       -0.016261047550 Rises=F Damp=F
 DIIS: error= 1.44D-03 at cycle   3 NSaved=   3.
 NSaved= 3 IEnMin= 3 EnMin= 0.824974781323959E-01 IErMin= 3 ErrMin= 1.44D-03
 ErrMax= 1.44D-03  0.00D+00 EMaxC= 1.00D-01 BMatC= 8.45D-05 BMatP= 4.69D-03
 IDIUse=3 WtCom= 9.86D-01 WtEn= 1.44D-02
 Coeff-Com:  0.116D+00-0.499D+00 0.138D+01
 Coeff-En:   0.000D+00 0.000D+00 0.100D+01
 Coeff:      0.115D+00-0.491D+00 0.138D+01
 Gap=     0.323 Goal=   None    Shift=    0.000
 RMSDP=1.65D-03 MaxDP=1.47D-02 DE=-1.63D-02 OVMax= 1.47D-02

 Cycle   4  Pass 1  IDiag  3:
 E= 0.818655954765433E-01 Delta-E=       -0.000631882656 Rises=F Damp=F
 DIIS: error= 5.22D-04 at cycle   4 NSaved=   4.
 NSaved= 4 IEnMin= 4 EnMin= 0.818655954765433E-01 IErMin= 4 ErrMin= 5.22D-04
 ErrMax= 5.22D-04  0.00D+00 EMaxC= 1.00D-01 BMatC= 8.00D-06 BMatP= 8.45D-05
 IDIUse=3 WtCom= 9.95D-01 WtEn= 5.22D-03
 Coeff-Com: -0.188D-02 0.135D-01-0.301D+00 0.129D+01
 Coeff-En:   0.000D+00 0.000D+00 0.000D+00 0.100D+01
 Coeff:     -0.187D-02 0.134D-01-0.300D+00 0.129D+01
 Gap=     0.324 Goal=   None    Shift=    0.000
 RMSDP=6.45D-04 MaxDP=5.28D-03 DE=-6.32D-04 OVMax= 6.44D-03

 Cycle   5  Pass 1  IDiag  3:
 E= 0.817830909285249E-01 Delta-E=       -0.000082504548 Rises=F Damp=F
 DIIS: error= 3.01D-04 at cycle   5 NSaved=   5.
 NSaved= 5 IEnMin= 5 EnMin= 0.817830909285249E-01 IErMin= 5 ErrMin= 3.01D-04
 ErrMax= 3.01D-04  0.00D+00 EMaxC= 1.00D-01 BMatC= 1.45D-06 BMatP= 8.00D-06
 IDIUse=3 WtCom= 9.97D-01 WtEn= 3.01D-03
 Coeff-Com: -0.647D-02 0.252D-01 0.127D+00-0.107D+01 0.193D+01
 Coeff-En:   0.000D+00 0.000D+00 0.000D+00 0.000D+00 0.100D+01
 Coeff:     -0.645D-02 0.252D-01 0.127D+00-0.107D+01 0.192D+01
 Gap=     0.324 Goal=   None    Shift=    0.000
 RMSDP=4.10D-04 MaxDP=3.25D-03 DE=-8.25D-05 OVMax= 4.10D-03

 Cycle   6  Pass 1  IDiag  3:
 E= 0.817639023621126E-01 Delta-E=       -0.000019188566 Rises=F Damp=F
 DIIS: error= 7.28D-05 at cycle   6 NSaved=   6.
 NSaved= 6 IEnMin= 6 EnMin= 0.817639023621126E-01 IErMin= 6 ErrMin= 7.28D-05
 ErrMax= 7.28D-05  0.00D+00 EMaxC= 1.00D-01 BMatC= 8.16D-08 BMatP= 1.45D-06
 IDIUse=1 WtCom= 1.00D+00 WtEn= 0.00D+00
 Coeff-Com:  0.232D-02-0.951D-02-0.519D-01 0.465D+00-0.101D+01 0.161D+01
 Coeff:      0.232D-02-0.951D-02-0.519D-01 0.465D+00-0.101D+01 0.161D+01
 Gap=     0.324 Goal=   None    Shift=    0.000
 RMSDP=9.43D-05 MaxDP=8.08D-04 DE=-1.92D-05 OVMax= 8.29D-04

 Cycle   7  Pass 1  IDiag  3:
 E= 0.817630019920728E-01 Delta-E=       -0.000000900370 Rises=F Damp=F
 DIIS: error= 7.26D-06 at cycle   7 NSaved=   7.
 NSaved= 7 IEnMin= 7 EnMin= 0.817630019920728E-01 IErMin= 7 ErrMin= 7.26D-06
 ErrMax= 7.26D-06  0.00D+00 EMaxC= 1.00D-01 BMatC= 1.76D-09 BMatP= 8.16D-08
 IDIUse=1 WtCom= 1.00D+00 WtEn= 0.00D+00
 Coeff-Com: -0.535D-03 0.209D-02 0.113D-01-0.998D-01 0.217D+00-0.402D+00
 Coeff-Com:  0.127D+01
 Coeff:     -0.535D-03 0.209D-02 0.113D-01-0.998D-01 0.217D+00-0.402D+00
 Coeff:      0.127D+01
 Gap=     0.324 Goal=   None    Shift=    0.000
 RMSDP=8.58D-06 MaxDP=6.53D-05 DE=-9.00D-07 OVMax= 8.85D-05

 Cycle   8  Pass 1  IDiag  3:
 E= 0.817629892100200E-01 Delta-E=       -0.000000012782 Rises=F Damp=F
 DIIS: error= 1.92D-06 at cycle   8 NSaved=   8.
 NSaved= 8 IEnMin= 8 EnMin= 0.817629892100200E-01 IErMin= 8 ErrMin= 1.92D-06
 ErrMax= 1.92D-06  0.00D+00 EMaxC= 1.00D-01 BMatC= 1.74D-10 BMatP= 1.76D-09
 IDIUse=1 WtCom= 1.00D+00 WtEn= 0.00D+00
 Coeff-Com:  0.533D-04-0.159D-03-0.608D-03 0.483D-02-0.909D-02 0.282D-01
 Coeff-Com: -0.402D+00 0.138D+01
 Coeff:      0.533D-04-0.159D-03-0.608D-03 0.483D-02-0.909D-02 0.282D-01
 Coeff:     -0.402D+00 0.138D+01
 Gap=     0.324 Goal=   None    Shift=    0.000
 RMSDP=2.56D-06 MaxDP=1.85D-05 DE=-1.28D-08 OVMax= 2.49D-05

 Cycle   9  Pass 1  IDiag  3:
 E= 0.817629878930290E-01 Delta-E=       -0.000000001317 Rises=F Damp=F
 DIIS: error= 6.93D-07 at cycle   9 NSaved=   9.
 NSaved= 9 IEnMin= 9 EnMin= 0.817629878930290E-01 IErMin= 9 ErrMin= 6.93D-07
 ErrMax= 6.93D-07  0.00D+00 EMaxC= 1.00D-01 BMatC= 1.57D-11 BMatP= 1.74D-10
 IDIUse=1 WtCom= 1.00D+00 WtEn= 0.00D+00
 Coeff-Com:  0.191D-04-0.989D-04-0.370D-03 0.413D-02-0.986D-02 0.144D-01
 Coeff-Com:  0.808D-01-0.559D+00 0.147D+01
 Coeff:      0.191D-04-0.989D-04-0.370D-03 0.413D-02-0.986D-02 0.144D-01
 Coeff:      0.808D-01-0.559D+00 0.147D+01
 Gap=     0.324 Goal=   None    Shift=    0.000
 RMSDP=9.15D-07 MaxDP=8.79D-06 DE=-1.32D-09 OVMax= 1.01D-05

 Cycle  10  Pass 1  IDiag  3:
 E= 0.817629877436445E-01 Delta-E=       -0.000000000149 Rises=F Damp=F
 DIIS: error= 2.22D-07 at cycle  10 NSaved=  10.
 NSaved=10 IEnMin=10 EnMin= 0.817629877436445E-01 IErMin=10 ErrMin= 2.22D-07
 ErrMax= 2.22D-07  0.00D+00 EMaxC= 1.00D-01 BMatC= 1.69D-12 BMatP= 1.57D-11
 IDIUse=1 WtCom= 1.00D+00 WtEn= 0.00D+00
 Coeff-Com: -0.162D-04 0.668D-04 0.343D-03-0.310D-02 0.681D-02-0.121D-01
 Coeff-Com:  0.189D-01 0.617D-01-0.590D+00 0.152D+01
 Coeff:     -0.162D-04 0.668D-04 0.343D-03-0.310D-02 0.681D-02-0.121D-01
 Coeff:      0.189D-01 0.617D-01-0.590D+00 0.152D+01
 Gap=     0.324 Goal=   None    Shift=    0.000
 RMSDP=3.68D-07 MaxDP=3.58D-06 DE=-1.49D-10 OVMax= 4.02D-06

 Cycle  11  Pass 1  IDiag  3:
 E= 0.817629877256110E-01 Delta-E=       -0.000000000018 Rises=F Damp=F
 DIIS: error= 5.33D-08 at cycle  11 NSaved=  11.
 NSaved=11 IEnMin=11 EnMin= 0.817629877256110E-01 IErMin=11 ErrMin= 5.33D-08
 ErrMax= 5.33D-08  0.00D+00 EMaxC= 1.00D-01 BMatC= 1.22D-13 BMatP= 1.69D-12
 IDIUse=1 WtCom= 1.00D+00 WtEn= 0.00D+00
 Coeff-Com:  0.370D-05-0.138D-04-0.871D-04 0.709D-03-0.149D-02 0.285D-02
 Coeff-Com: -0.884D-02-0.535D-03 0.187D+00-0.724D+00 0.154D+01
 Coeff:      0.370D-05-0.138D-04-0.871D-04 0.709D-03-0.149D-02 0.285D-02
 Coeff:     -0.884D-02-0.535D-03 0.187D+00-0.724D+00 0.154D+01
 Gap=     0.324 Goal=   None    Shift=    0.000
 RMSDP=9.45D-08 MaxDP=7.55D-07 DE=-1.80D-11 OVMax= 8.18D-07

 Cycle  12  Pass 1  IDiag  3:
 E= 0.817629877245167E-01 Delta-E=       -0.000000000001 Rises=F Damp=F
 DIIS: error= 1.50D-08 at cycle  12 NSaved=  12.
 NSaved=12 IEnMin=12 EnMin= 0.817629877245167E-01 IErMin=12 ErrMin= 1.50D-08
 ErrMax= 1.50D-08  0.00D+00 EMaxC= 1.00D-01 BMatC= 1.10D-14 BMatP= 1.22D-13
 IDIUse=1 WtCom= 1.00D+00 WtEn= 0.00D+00
 Coeff-Com: -0.280D-06 0.117D-06 0.297D-04-0.168D-03 0.299D-03-0.645D-03
 Coeff-Com:  0.409D-02-0.628D-02-0.620D-01 0.311D+00-0.943D+00 0.170D+01
 Coeff:     -0.280D-06 0.117D-06 0.297D-04-0.168D-03 0.299D-03-0.645D-03
 Coeff:      0.409D-02-0.628D-02-0.620D-01 0.311D+00-0.943D+00 0.170D+01
 Gap=     0.324 Goal=   None    Shift=    0.000
 RMSDP=3.10D-08 MaxDP=2.30D-07 DE=-1.09D-12 OVMax= 3.13D-07

 Cycle  13  Pass 1  IDiag  3:
 E= 0.817629877242325E-01 Delta-E=        0.000000000000 Rises=F Damp=F
 DIIS: error= 3.72D-09 at cycle  13 NSaved=  13.
 NSaved=13 IEnMin=13 EnMin= 0.817629877242325E-01 IErMin=13 ErrMin= 3.72D-09
 ErrMax= 3.72D-09  0.00D+00 EMaxC= 1.00D-01 BMatC= 6.01D-16 BMatP= 1.10D-14
 IDIUse=1 WtCom= 1.00D+00 WtEn= 0.00D+00
 Coeff-Com: -0.332D-07 0.698D-06-0.129D-04 0.607D-04-0.944D-04 0.223D-03
 Coeff-Com: -0.196D-02 0.372D-02 0.266D-01-0.144D+00 0.464D+00-0.983D+00
 Coeff-Com:  0.163D+01
 Coeff:     -0.332D-07 0.698D-06-0.129D-04 0.607D-04-0.944D-04 0.223D-03
 Coeff:     -0.196D-02 0.372D-02 0.266D-01-0.144D+00 0.464D+00-0.983D+00
 Coeff:      0.163D+01
 Gap=     0.324 Goal=   None    Shift=    0.000
 RMSDP=6.96D-09 MaxDP=4.44D-08 DE=-2.84D-13 OVMax= 9.41D-08

 Cycle  14  Pass 2  IDiag  1:
 SCF Done:  E(RAM1) =  0.817629877242E-01 A.U. after   14 cycles
            NFock= 13  Conv=0.70D-08     -V/T= 1.0056
 KE=-1.448127561868D+01 PE=-1.534831939736D+02 EE= 7.547635213707D+01
 Leave Link  502 at Sun Apr 10 09:54:40 2016, MaxMem=    33554432 cpu:         0.0
 (Enter /home/dustin/Applications/g09/g09/l601.exe)
 Copying SCF densities to generalized density rwf, IOpCl= 0 IROHF=0.

 **********************************************************************

            Population analysis using the SCF density.

 **********************************************************************

 Orbital symmetries:
       Occupied  (A) (A) (A) (A) (A) (A) (A) (A) (A) (A) (A) (A)
                 (A)
       Virtual   (A) (A) (A) (A) (A) (A) (A) (A) (A) (A) (A)
 The electronic state is 1-A.
 Alpha  occ. eigenvalues --   -1.36648  -1.08605  -0.92590  -0.74657  -0.67709
 Alpha  occ. eigenvalues --   -0.60051  -0.51228  -0.50776  -0.48608  -0.47903
 Alpha  occ. eigenvalues --   -0.43259  -0.35143  -0.33411
 Alpha virt. eigenvalues --   -0.00977   0.02597   0.03893   0.06235   0.15488
 Alpha virt. eigenvalues --    0.15840   0.17249   0.17895   0.18697   0.19900
 Alpha virt. eigenvalues --    0.20592
          Condensed to atoms (all electrons):
               1          2          3          4          5          6
     1  C    4.157491   0.000000   0.000000   0.000000   0.000000   0.000000
     2  C    0.000000   4.346315   0.000000   0.000000   0.000000   0.000000
     3  C    0.000000   0.000000   4.312757   0.000000   0.000000   0.000000
     4  C    0.000000   0.000000   0.000000   4.144034   0.000000   0.000000
     5  H    0.000000   0.000000   0.000000   0.000000   0.850973   0.000000
     6  H    0.000000   0.000000   0.000000   0.000000   0.000000   0.834468
     7  H    0.000000   0.000000   0.000000   0.000000   0.000000   0.000000
     8  H    0.000000   0.000000   0.000000   0.000000   0.000000   0.000000
     9  S    0.000000   0.000000   0.000000   0.000000   0.000000   0.000000
               7          8          9
     1  C    0.000000   0.000000   0.000000
     2  C    0.000000   0.000000   0.000000
     3  C    0.000000   0.000000   0.000000
     4  C    0.000000   0.000000   0.000000
     5  H    0.000000   0.000000   0.000000
     6  H    0.000000   0.000000   0.000000
     7  H    0.838357   0.000000   0.000000
     8  H    0.000000   0.857116   0.000000
     9  S    0.000000   0.000000   5.658489
 Mulliken charges:
               1
     1  C   -0.157491
     2  C   -0.346315
     3  C   -0.312757
     4  C   -0.144034
     5  H    0.149027
     6  H    0.165532
     7  H    0.161643
     8  H    0.142884
     9  S    0.341511
 Sum of Mulliken charges =   0.00000
 Mulliken charges with hydrogens summed into heavy atoms:
               1
     1  C   -0.014606
     2  C   -0.184672
     3  C   -0.147225
     4  C    0.004993
     9  S    0.341511
 Charge=              0.0000 electrons
 Dipole moment (field-independent basis, Debye):
    X=             -0.2203    Y=             -0.0934    Z=              0.0621  Tot=              0.2472
 N-N= 9.256988044294D+01 E-N=-1.534831939664D+02  KE=-1.448127561868D+01
 Leave Link  601 at Sun Apr 10 09:54:40 2016, MaxMem=    33554432 cpu:         0.0
 (Enter /home/dustin/Applications/g09/g09/l701.exe)
 Compute integral first derivatives.
 ... and contract with generalized density number  0.
 Leave Link  701 at Sun Apr 10 09:54:40 2016, MaxMem=    33554432 cpu:         0.0
 (Enter /home/dustin/Applications/g09/g09/l702.exe)
 L702 exits ... SP integral derivatives will be done elsewhere.
 Leave Link  702 at Sun Apr 10 09:54:40 2016, MaxMem=    33554432 cpu:         0.0
 (Enter /home/dustin/Applications/g09/g09/l703.exe)
 Compute integral first derivatives, UseDBF=F ICtDFT=           0.
 Integral derivatives from FoFJK, PRISM(SPDF).
 Calling FoFJK, ICntrl=      2127 FMM=F ISym2X=0 I1Cent= 0 IOpClX= 0 NMat=1 NMatS=1 NMatT=0.
 FoFJK:  IHMeth= 8 ICntrl=    2127 DoSepK=F KAlg= 0 I1Cent=   0 FoldK=F
 IRaf=         0 NMat=   1 IRICut=       1 DoRegI=T DoRafI=F ISym2E= 0.
 FoFCou: FMM=F IPFlag=           0 FMFlag=      100000 FMFlg1=         800
         NFxFlg=           0 DoJE=F BraDBF=F KetDBF=F FulRan=T
         wScrn=  0.000000 ICntrl=    2127 IOpCl=  0 I1Cent=           0 NGrid=           0
         NMat0=    1 NMatS0=      1 NMatT0=    0 NMatD0=    1 NMtDS0=    0 NMtDT0=    0
 Symmetry not used in FoFCou.
 Leave Link  703 at Sun Apr 10 09:54:40 2016, MaxMem=    33554432 cpu:         0.0
 (Enter /home/dustin/Applications/g09/g09/l716.exe)
 Dipole        =-8.66741876D-02-3.67612157D-02 2.44353876D-02
 ***** Axes restored to original set *****
 -------------------------------------------------------------------
 Center     Atomic                   Forces (Hartrees/Bohr)
 Number     Number              X              Y              Z
 -------------------------------------------------------------------
      1        6          -0.062540681   -0.049270387   -0.002738905
      2        6           0.029296090    0.104484324   -0.002336295
      3        6           0.028068769   -0.116516968   -0.003444845
      4        6          -0.100014901    0.055185775   -0.007212275
      5        1           0.035585070    0.019958095    0.003078401
      6        1          -0.015473323    0.041078855    0.000978893
      7        1          -0.012574112   -0.057358969   -0.000120170
      8        1           0.028937186   -0.023147218    0.001267481
      9       16           0.068715903    0.025586491    0.010527715
 -------------------------------------------------------------------
 Cartesian Forces:  Max     0.116516968 RMS     0.046949840
 Leave Link  716 at Sun Apr 10 09:54:40 2016, MaxMem=    33554432 cpu:         0.0
 (Enter /home/dustin/Applications/g09/g09/l103.exe)

 GradGradGradGradGradGradGradGradGradGradGradGradGradGradGradGradGradGrad
 Berny optimization.
 FormGI is forming the generalized inverse of G from B-inverse, IUseBI=4.
 Internal  Forces:  Max     0.063024012 RMS     0.024376655
 Search for a local minimum.
 Step number   1 out of a maximum of   48
 All quantities printed in internal units (Hartrees-Bohrs-Radians)
 RMS Force = .24377D-01 SwitMx=.10000D-02 MixMth= 1
 Mixed Optimization -- RFO/linear search
 Second derivative matrix not updated -- first step.
 ITU=  0
     Eigenvalues ---    0.01116   0.01356   0.01657   0.02025   0.02038
     Eigenvalues ---    0.02195   0.15789   0.15882   0.15941   0.15981
     Eigenvalues ---    0.21272   0.21996   0.22661   0.30912   0.38993
     Eigenvalues ---    0.40007   0.40944   0.41687   0.43572   0.45369
     Eigenvalues ---    0.48407
 RFO step:  Lambda=-5.58835116D-02 EMin= 1.11568583D-02
 Linear search not attempted -- first point.
 Maximum step size (   0.300) exceeded in Quadratic search.
    -- Step size scaled by   0.790
 Iteration  1 RMS(Cart)=  0.04232061 RMS(Int)=  0.00101154
 Iteration  2 RMS(Cart)=  0.00097620 RMS(Int)=  0.00031252
 Iteration  3 RMS(Cart)=  0.00000124 RMS(Int)=  0.00031252
 Iteration  4 RMS(Cart)=  0.00000000 RMS(Int)=  0.00031252
 ITry= 1 IFail=0 DXMaxC= 1.43D-01 DCOld= 1.00D+10 DXMaxT= 3.00D-01 DXLimC= 3.00D+00 Rises=F
 Variable       Old X    -DE/DX   Delta X   Delta X   Delta X     New X
                                 (Linear)    (Quad)   (Total)
    R1        2.67738  -0.05030   0.00000  -0.08211  -0.08222   2.59516
    R2        2.59901   0.04591   0.00000   0.06576   0.06542   2.66443
    R3        1.98244   0.03665   0.00000   0.06353   0.06353   2.04597
    R4        1.91549   0.05844   0.00000   0.09065   0.09065   2.00615
    R5        3.28443  -0.03379   0.00000  -0.07248  -0.07219   3.21224
    R6        2.70625  -0.06187   0.00000  -0.10507  -0.10525   2.60100
    R7        1.93670   0.04298   0.00000   0.06910   0.06910   2.00580
    R8        3.53751  -0.06302   0.00000  -0.18633  -0.18611   3.35140
    R9        1.96990   0.04030   0.00000   0.06846   0.06846   2.03836
    A1        2.02824  -0.01466   0.00000  -0.04065  -0.04113   1.98711
    A2        2.14253   0.00346   0.00000   0.00615   0.00637   2.14891
    A3        2.11121   0.01120   0.00000   0.03460   0.03486   2.14607
    A4        2.18765   0.00238   0.00000   0.00870   0.00861   2.19626
    A5        1.93943  -0.00091   0.00000  -0.00314  -0.00303   1.93640
    A6        2.15288  -0.00142   0.00000  -0.00506  -0.00509   2.14779
    A7        2.20572   0.00444   0.00000   0.01848   0.01846   2.22418
    A8        1.87999   0.00509   0.00000   0.01678   0.01664   1.89664
    A9        2.18881  -0.00924   0.00000  -0.03229  -0.03241   2.15640
   A10        1.98463  -0.00155   0.00000  -0.00131  -0.00195   1.98268
   A11        2.20917  -0.00339   0.00000  -0.01385  -0.01371   2.19545
   A12        2.08247   0.00521   0.00000   0.01802   0.01824   2.10071
   A13        1.58904   0.01219   0.00000   0.03028   0.03114   1.62019
    D1       -2.98234  -0.00317   0.00000  -0.03196  -0.03168  -3.01402
    D2        0.07518  -0.00269   0.00000  -0.02577  -0.02539   0.04979
    D3        0.21151  -0.00354   0.00000  -0.03515  -0.03493   0.17658
    D4       -3.01415  -0.00305   0.00000  -0.02896  -0.02864  -3.04279
    D5       -0.02998   0.00114   0.00000   0.01316   0.01329  -0.01669
    D6       -3.04352  -0.00174   0.00000  -0.01470  -0.01441  -3.05793
    D7        3.06037   0.00127   0.00000   0.01543   0.01562   3.07599
    D8        0.04683  -0.00161   0.00000  -0.01244  -0.01208   0.03474
    D9       -0.07261   0.00115   0.00000   0.01923   0.01973  -0.05288
   D10        2.98689   0.00184   0.00000   0.02606   0.02659   3.01348
   D11        2.98061   0.00174   0.00000   0.02327   0.02338   3.00399
   D12       -0.27887   0.00375   0.00000   0.04648   0.04695  -0.23192
   D13       -0.02545   0.00022   0.00000   0.00294   0.00279  -0.02266
   D14        2.99825   0.00222   0.00000   0.02616   0.02636   3.02461
   D15        0.05626  -0.00097   0.00000  -0.01314  -0.01316   0.04310
   D16       -2.95146  -0.00380   0.00000  -0.03813  -0.03754  -2.98900
         Item               Value     Threshold  Converged?
 Maximum Force            0.063024     0.000450     NO 
 RMS     Force            0.024377     0.000300     NO 
 Maximum Displacement     0.143275     0.001800     NO 
 RMS     Displacement     0.042698     0.001200     NO 
 Predicted change in Energy=-2.952248D-02
 Lowest energy point so far.  Saving SCF results.
 GradGradGradGradGradGradGradGradGradGradGradGradGradGradGradGradGradGrad

 Leave Link  103 at Sun Apr 10 09:54:40 2016, MaxMem=    33554432 cpu:         0.0
 (Enter /home/dustin/Applications/g09/g09/l202.exe)
                          Input orientation:                          
 ---------------------------------------------------------------------
 Center     Atomic      Atomic             Coordinates (Angstroms)
 Number     Number       Type             X           Y           Z
 ---------------------------------------------------------------------
      1          6           0        0.886349   -0.668845   -0.012046
      2          6           0       -0.373248   -1.215737   -0.028482
      3          6           0       -0.361955    1.299832    0.036043
      4          6           0        0.895557    0.740266    0.035888
      5          1           0        1.771435    1.367553   -0.017436
      6          1           0       -0.614006    2.320430    0.182577
      7          1           0       -0.603047   -2.249473    0.046298
      8          1           0        1.789733   -1.261900   -0.078232
      9         16           0       -1.562479   -0.001682   -0.064171
 ---------------------------------------------------------------------
                    Distance matrix (angstroms):
                    1          2          3          4          5
     1  C    0.000000
     2  C    1.373298   0.000000
     3  C    2.331579   2.516422   0.000000
     4  C    1.409955   2.332372   1.376390   0.000000
     5  H    2.220433   3.357555   2.135134   1.078654   0.000000
     6  H    3.350329   3.550633   1.061425   2.190255   2.576491
     7  H    2.172577   1.061607   3.557498   3.344318   4.327251
     8  H    1.082681   2.164046   3.347430   2.195733   2.630219
     9  S    2.538618   1.699845   1.773482   2.569521   3.604438
                    6          7          8          9
     6  H    0.000000
     7  H    4.571948   0.000000
     8  H    4.321929   2.591564   0.000000
     9  S    2.520455   2.446483   3.581295   0.000000
 Stoichiometry    C4H4S
 Framework group  C1[X(C4H4S)]
 Deg. of freedom    21
 Full point group                 C1      NOp   1
 RotChk:  IX=0 Diff= 7.27D-02
 Largest Abelian subgroup         C1      NOp   1
 Largest concise Abelian subgroup C1      NOp   1
                         Standard orientation:                         
 ---------------------------------------------------------------------
 Center     Atomic      Atomic             Coordinates (Angstroms)
 Number     Number       Type             X           Y           Z
 ---------------------------------------------------------------------
      1          6           0       -1.205648    0.781762   -0.004103
      2          6           0        0.089744    1.236955    0.022438
      3          6           0       -0.102279   -1.272121    0.015968
      4          6           0       -1.316366   -0.623817    0.003992
      5          1           0       -2.233187   -1.184900   -0.086119
      6          1           0        0.072850   -2.311715    0.139244
      7          1           0        0.390757    2.249160    0.131262
      8          1           0       -2.062647    1.439754   -0.073369
      9         16           0        1.189970   -0.058061   -0.021299
 ---------------------------------------------------------------------
 Rotational constants (GHZ):      7.9031464      5.4274747      3.2206652
 Leave Link  202 at Sun Apr 10 09:54:40 2016, MaxMem=    33554432 cpu:         0.0
 (Enter /home/dustin/Applications/g09/g09/l301.exe)

 Semi-emprical parameters in input format:
 Method=8 CoreType=1 PeptideFC=0.0114505045 RIJScale=0.5291772086
 ****
 H       
 PQN=1 NValence=1 F0ss=0.4721553327 ZetaOverlap=1.1880780000 U=-0.4188110042
 Beta=-0.2268825074 CoreKO=1.0589197790 KON=0,0,0,1.0589197790 KON=1,0,1,1.0589197790
 KON=0,1,1,1.0589197790 KON=2,1,1,1.0589197790 EISol=-0.4188110042 EHeat=0.0830298228
 Alpha=1.5252601686
 GCore=0.0085277107,1.4001425905,2.2676713595
 GCore=0.0003534810,1.4001425905,3.4015070392
 GCore=-0.0012733648,0.5600570362,3.9684248791
 ****
 C       
 PQN=2,2 NValence=4 F0ss=0.4494442496 F0sp=0.4215147623 F0pp=0.3768030831 F2pp=0.1898715146
 G1sp=0.2679025821
 ZetaOverlap=1.8086650000,1.6851160000
 U=-1.9120180828,-1.4557965594
 Beta=-0.5775444233,-0.2836784428 DDN=0,1,0.8236736000 DDN=1,1,0.7268015000
 CoreKO=1.1124284736 KON=0,0,0,1.1124284736 KON=1,0,1,0.8219701441 KON=0,1,1,1.1124284736
 KON=2,1,1,0.7783928119 EISol=-4.4398989268 EHeat=0.2723305520 Alpha=1.4014062429
 DipHyp=1.6472524267
 GCore=0.0007885612,1.4001425905,3.0235618126
 GCore=0.0031892455,1.4001425905,3.4959933458
 GCore=-0.0013931594,1.4001425905,3.8739385724
 GCore=-0.0000875022,1.4001425905,5.0077742521
 ****
 S       
 PQN=3,3 NValence=6 F0ss=0.4331396397 F0sp=0.3183640731 F0pp=0.3136271218 F2pp=0.3456917167
 G1sp=0.2791629797
 ZetaOverlap=2.3665150000,1.6672630000,1.0000000000
 U=-2.0834683120,-1.7903186861
 Beta=-0.1440781557,-0.2905136336 DDN=0,1,0.9004265000 DDN=1,1,1.0036329000
 CoreKO=1.1543033468 KON=0,0,0,1.1543033468 KON=1,0,1,0.8464368816 KON=0,1,1,1.1543033468
 KON=2,1,1,0.7746001785 EISol=-7.0460287497 EHeat=0.1058151363 Alpha=1.3026480172
 DipHyp=1.8007493954
 GCore=-0.0353616377,1.2863644833,1.4563457902
 GCore=-0.0008238398,1.6425719595,2.8408498620
 GCore=0.0008565489,3.7964407093,3.7967867236
 ****
 
 Standard basis: VSTO-6G (5D, 7F)
 Ernie: Thresh=  0.10000D-02 Tol=  0.10000D-05 Strict=F.
  NNHCO=     0 NNPyr=     0 NCTC=     0               EPep=         0.000000000
    EC=        63.505343709  ECS=         1.659598950   EG=         0.143383605
   EHC=         0.000000000  EAt=       -26.480868474  AtH=         1.527256636
 EPDDG=         0.000000000  ECC=        65.308326263 EAtT=        28.008125109
 There are    24 symmetry adapted cartesian basis functions of A   symmetry.
 There are    24 symmetry adapted basis functions of A   symmetry.
    24 basis functions,   144 primitive gaussians,    24 cartesian basis functions
    13 alpha electrons       13 beta electrons
       nuclear repulsion energy        93.3164513723 Hartrees.



 Warning!  S  atom    9 may be hypervalent but has no d functions.



 IExCor=    0 DFT=F Ex=HF Corr=None ExCW=0 ScaHFX=  1.000000
 ScaDFX=  1.000000  1.000000  1.000000  1.000000 ScalE2=  1.000000  1.000000
 IRadAn=      0 IRanWt=     -1 IRanGd=            0 ICorTp=0 IEmpDi=  4
 Integral buffers will be    131072 words long.
 Regular integral format.
 Two-electron integral symmetry is turned off.
 Leave Link  301 at Sun Apr 10 09:54:40 2016, MaxMem=    33554432 cpu:         0.0
 (Enter /home/dustin/Applications/g09/g09/l302.exe)
 Do NDO integrals.
 NPDir=0 NMtPBC=     1 NCelOv=     1 NCel=       1 NClECP=     1 NCelD=      1
         NCelK=      1 NCelE2=     1 NClLst=     1 CellRange=     0.0.
 One-electron integrals computed using PRISM.
 NBasis=    24 RedAO= F EigKep=  0.00D+00  NBF=    24
 NBsUse=    24 1.00D-04 EigRej=  0.00D+00 NBFU=    24
 Leave Link  302 at Sun Apr 10 09:54:40 2016, MaxMem=    33554432 cpu:         0.0
 (Enter /home/dustin/Applications/g09/g09/l303.exe)
 DipDrv:  MaxL=1.
 Leave Link  303 at Sun Apr 10 09:54:40 2016, MaxMem=    33554432 cpu:         0.0
 (Enter /home/dustin/Applications/g09/g09/l401.exe)
 Initial guess from the checkpoint file:  "best.chk"
 B after Tr=     0.000000    0.000000    0.000000
         Rot=    0.999749    0.000240   -0.000714   -0.022378 Ang=   2.57 deg.
 Guess basis will be translated and rotated to current coordinates.
 JPrj=0 DoOrth=T DoCkMO=T.
 Leave Link  401 at Sun Apr 10 09:54:40 2016, MaxMem=    33554432 cpu:         0.0
 (Enter /home/dustin/Applications/g09/g09/l502.exe)
 Closed shell SCF:
 Using DIIS extrapolation, IDIIS=  1040.
 Overlap will be assumed to be unity.
 Two-electron integral symmetry not used.
 Keep J ints in memory in canonical form, NReq=888082.
 IVT=       79475 IEndB=       79475 NGot=    33554432 MDV=    33473473
 LenX=    33473473 LenY=    33472456
 Requested convergence on RMS density matrix=1.00D-08 within 128 cycles.
 Requested convergence on MAX density matrix=1.00D-06.
 Requested convergence on             energy=1.00D-06.
 No special actions if energy rises.
 FoFCou: FMM=F IPFlag=           0 FMFlag=           0 FMFlg1=           0
         NFxFlg=           0 DoJE=F BraDBF=F KetDBF=F FulRan=T
         wScrn=  0.000000 ICntrl=     600 IOpCl=  2 I1Cent=           0 NGrid=           0
         NMat0=    1 NMatS0=     54 NMatT0=    0 NMatD0=    1 NMtDS0=    0 NMtDT0=    0
 Symmetry not used in FoFCou.

 Cycle   1  Pass 1  IDiag  1:
 E= 0.569178444089715E-01
 DIIS: error= 5.32D-03 at cycle   1 NSaved=   1.
 NSaved= 1 IEnMin= 1 EnMin= 0.569178444089715E-01 IErMin= 1 ErrMin= 5.32D-03
 ErrMax= 5.32D-03  0.00D+00 EMaxC= 1.00D-01 BMatC= 1.44D-03 BMatP= 1.44D-03
 IDIUse=3 WtCom= 9.47D-01 WtEn= 5.32D-02
 Coeff-Com:  0.100D+01
 Coeff-En:   0.100D+01
 Coeff:      0.100D+01
 GapD=    2.000 DampG=2.000 DampE=1.000 DampFc=2.0000 IDamp=-1.
 RMSDP=2.69D-03 MaxDP=1.22D-02              OVMax= 0.00D+00

 Cycle   2  Pass 1  IDiag  3:
 E= 0.525686869914495E-01 Delta-E=       -0.004349157418 Rises=F Damp=F
 DIIS: error= 1.42D-03 at cycle   2 NSaved=   2.
 NSaved= 2 IEnMin= 2 EnMin= 0.525686869914495E-01 IErMin= 2 ErrMin= 1.42D-03
 ErrMax= 1.42D-03  0.00D+00 EMaxC= 1.00D-01 BMatC= 1.55D-04 BMatP= 1.44D-03
 IDIUse=3 WtCom= 9.86D-01 WtEn= 1.42D-02
 Coeff-Com: -0.403D+00 0.140D+01
 Coeff-En:   0.000D+00 0.100D+01
 Coeff:     -0.397D+00 0.140D+01
 Gap=     0.343 Goal=   None    Shift=    0.000
 RMSDP=1.47D-03 MaxDP=6.72D-03 DE=-4.35D-03 OVMax= 7.57D-03

 Cycle   3  Pass 1  IDiag  3:
 E= 0.518672649400997E-01 Delta-E=       -0.000701422051 Rises=F Damp=F
 DIIS: error= 3.81D-04 at cycle   3 NSaved=   3.
 NSaved= 3 IEnMin= 3 EnMin= 0.518672649400997E-01 IErMin= 3 ErrMin= 3.81D-04
 ErrMax= 3.81D-04  0.00D+00 EMaxC= 1.00D-01 BMatC= 7.03D-06 BMatP= 1.55D-04
 IDIUse=3 WtCom= 9.96D-01 WtEn= 3.81D-03
 Coeff-Com:  0.168D+00-0.698D+00 0.153D+01
 Coeff-En:   0.000D+00 0.000D+00 0.100D+01
 Coeff:      0.167D+00-0.696D+00 0.153D+01
 Gap=     0.343 Goal=   None    Shift=    0.000
 RMSDP=4.79D-04 MaxDP=3.29D-03 DE=-7.01D-04 OVMax= 3.34D-03

 Cycle   4  Pass 1  IDiag  3:
 E= 0.518174256822448E-01 Delta-E=       -0.000049839258 Rises=F Damp=F
 DIIS: error= 1.07D-04 at cycle   4 NSaved=   4.
 NSaved= 4 IEnMin= 4 EnMin= 0.518174256822448E-01 IErMin= 4 ErrMin= 1.07D-04
 ErrMax= 1.07D-04  0.00D+00 EMaxC= 1.00D-01 BMatC= 4.21D-07 BMatP= 7.03D-06
 IDIUse=3 WtCom= 9.99D-01 WtEn= 1.07D-03
 Coeff-Com: -0.658D-01 0.286D+00-0.775D+00 0.156D+01
 Coeff-En:   0.000D+00 0.000D+00 0.000D+00 0.100D+01
 Coeff:     -0.658D-01 0.286D+00-0.775D+00 0.155D+01
 Gap=     0.343 Goal=   None    Shift=    0.000
 RMSDP=1.53D-04 MaxDP=9.95D-04 DE=-4.98D-05 OVMax= 1.70D-03

 Cycle   5  Pass 1  IDiag  3:
 E= 0.518133043655808E-01 Delta-E=       -0.000004121317 Rises=F Damp=F
 DIIS: error= 3.59D-05 at cycle   5 NSaved=   5.
 NSaved= 5 IEnMin= 5 EnMin= 0.518133043655808E-01 IErMin= 5 ErrMin= 3.59D-05
 ErrMax= 3.59D-05  0.00D+00 EMaxC= 1.00D-01 BMatC= 3.76D-08 BMatP= 4.21D-07
 IDIUse=1 WtCom= 1.00D+00 WtEn= 0.00D+00
 Coeff-Com:  0.118D-01-0.549D-01 0.188D+00-0.676D+00 0.153D+01
 Coeff:      0.118D-01-0.549D-01 0.188D+00-0.676D+00 0.153D+01
 Gap=     0.343 Goal=   None    Shift=    0.000
 RMSDP=5.66D-05 MaxDP=4.43D-04 DE=-4.12D-06 OVMax= 7.08D-04

 Cycle   6  Pass 1  IDiag  3:
 E= 0.518128726967291E-01 Delta-E=       -0.000000431669 Rises=F Damp=F
 DIIS: error= 1.18D-05 at cycle   6 NSaved=   6.
 NSaved= 6 IEnMin= 6 EnMin= 0.518128726967291E-01 IErMin= 6 ErrMin= 1.18D-05
 ErrMax= 1.18D-05  0.00D+00 EMaxC= 1.00D-01 BMatC= 2.79D-09 BMatP= 3.76D-08
 IDIUse=1 WtCom= 1.00D+00 WtEn= 0.00D+00
 Coeff-Com: -0.278D-02 0.139D-01-0.586D-01 0.283D+00-0.864D+00 0.163D+01
 Coeff:     -0.278D-02 0.139D-01-0.586D-01 0.283D+00-0.864D+00 0.163D+01
 Gap=     0.343 Goal=   None    Shift=    0.000
 RMSDP=1.51D-05 MaxDP=1.20D-04 DE=-4.32D-07 OVMax= 1.84D-04

 Cycle   7  Pass 1  IDiag  3:
 E= 0.518128430768883E-01 Delta-E=       -0.000000029620 Rises=F Damp=F
 DIIS: error= 3.09D-06 at cycle   7 NSaved=   7.
 NSaved= 7 IEnMin= 7 EnMin= 0.518128430768883E-01 IErMin= 7 ErrMin= 3.09D-06
 ErrMax= 3.09D-06  0.00D+00 EMaxC= 1.00D-01 BMatC= 1.53D-10 BMatP= 2.79D-09
 IDIUse=1 WtCom= 1.00D+00 WtEn= 0.00D+00
 Coeff-Com:  0.445D-03-0.258D-02 0.143D-01-0.871D-01 0.299D+00-0.748D+00
 Coeff-Com:  0.152D+01
 Coeff:      0.445D-03-0.258D-02 0.143D-01-0.871D-01 0.299D+00-0.748D+00
 Coeff:      0.152D+01
 Gap=     0.343 Goal=   None    Shift=    0.000
 RMSDP=3.34D-06 MaxDP=2.92D-05 DE=-2.96D-08 OVMax= 3.55D-05

 Cycle   8  Pass 1  IDiag  3:
 E= 0.518128416164103E-01 Delta-E=       -0.000000001460 Rises=F Damp=F
 DIIS: error= 5.14D-07 at cycle   8 NSaved=   8.
 NSaved= 8 IEnMin= 8 EnMin= 0.518128416164103E-01 IErMin= 8 ErrMin= 5.14D-07
 ErrMax= 5.14D-07  0.00D+00 EMaxC= 1.00D-01 BMatC= 6.28D-12 BMatP= 1.53D-10
 IDIUse=1 WtCom= 1.00D+00 WtEn= 0.00D+00
 Coeff-Com:  0.615D-05 0.430D-04-0.929D-03 0.828D-02-0.311D-01 0.102D+00
 Coeff-Com: -0.383D+00 0.131D+01
 Coeff:      0.615D-05 0.430D-04-0.929D-03 0.828D-02-0.311D-01 0.102D+00
 Coeff:     -0.383D+00 0.131D+01
 Gap=     0.343 Goal=   None    Shift=    0.000
 RMSDP=5.34D-07 MaxDP=4.31D-06 DE=-1.46D-09 OVMax= 4.92D-06

 Cycle   9  Pass 1  IDiag  3:
 E= 0.518128415659902E-01 Delta-E=       -0.000000000050 Rises=F Damp=F
 DIIS: error= 9.14D-08 at cycle   9 NSaved=   9.
 NSaved= 9 IEnMin= 9 EnMin= 0.518128415659902E-01 IErMin= 9 ErrMin= 9.14D-08
 ErrMax= 9.14D-08  0.00D+00 EMaxC= 1.00D-01 BMatC= 4.37D-13 BMatP= 6.28D-12
 IDIUse=1 WtCom= 1.00D+00 WtEn= 0.00D+00
 Coeff-Com: -0.277D-04 0.134D-03-0.503D-03 0.210D-02-0.614D-02 0.483D-02
 Coeff-Com:  0.604D-01-0.517D+00 0.146D+01
 Coeff:     -0.277D-04 0.134D-03-0.503D-03 0.210D-02-0.614D-02 0.483D-02
 Coeff:      0.604D-01-0.517D+00 0.146D+01
 Gap=     0.343 Goal=   None    Shift=    0.000
 RMSDP=1.40D-07 MaxDP=8.90D-07 DE=-5.04D-11 OVMax= 1.10D-06

 Cycle  10  Pass 1  IDiag  3:
 E= 0.518128415627075E-01 Delta-E=       -0.000000000003 Rises=F Damp=F
 DIIS: error= 1.79D-08 at cycle  10 NSaved=  10.
 NSaved=10 IEnMin=10 EnMin= 0.518128415627075E-01 IErMin=10 ErrMin= 1.79D-08
 ErrMax= 1.79D-08  0.00D+00 EMaxC= 1.00D-01 BMatC= 2.05D-14 BMatP= 4.37D-13
 IDIUse=1 WtCom= 1.00D+00 WtEn= 0.00D+00
 Coeff-Com:  0.196D-04-0.971D-04 0.387D-03-0.176D-02 0.532D-02-0.836D-02
 Coeff-Com: -0.119D-01 0.205D+00-0.735D+00 0.155D+01
 Coeff:      0.196D-04-0.971D-04 0.387D-03-0.176D-02 0.532D-02-0.836D-02
 Coeff:     -0.119D-01 0.205D+00-0.735D+00 0.155D+01
 Gap=     0.343 Goal=   None    Shift=    0.000
 RMSDP=3.20D-08 MaxDP=2.19D-07 DE=-3.28D-12 OVMax= 2.65D-07

 Cycle  11  Pass 1  IDiag  3:
 E= 0.518128415624801E-01 Delta-E=        0.000000000000 Rises=F Damp=F
 DIIS: error= 5.07D-09 at cycle  11 NSaved=  11.
 NSaved=11 IEnMin=11 EnMin= 0.518128415624801E-01 IErMin=11 ErrMin= 5.07D-09
 ErrMax= 5.07D-09  0.00D+00 EMaxC= 1.00D-01 BMatC= 1.49D-15 BMatP= 2.05D-14
 IDIUse=1 WtCom= 1.00D+00 WtEn= 0.00D+00
 Coeff-Com: -0.119D-04 0.588D-04-0.232D-03 0.104D-02-0.313D-02 0.477D-02
 Coeff-Com:  0.802D-02-0.128D+00 0.461D+00-0.111D+01 0.177D+01
 Coeff:     -0.119D-04 0.588D-04-0.232D-03 0.104D-02-0.313D-02 0.477D-02
 Coeff:      0.802D-02-0.128D+00 0.461D+00-0.111D+01 0.177D+01
 Gap=     0.343 Goal=   None    Shift=    0.000
 RMSDP=1.09D-08 MaxDP=7.31D-08 DE=-2.27D-13 OVMax= 1.09D-07

 Cycle  12  Pass 1  IDiag  3:
 E= 0.518128415624091E-01 Delta-E=        0.000000000000 Rises=F Damp=F
 DIIS: error= 1.38D-09 at cycle  12 NSaved=  12.
 NSaved=12 IEnMin=12 EnMin= 0.518128415624091E-01 IErMin=12 ErrMin= 1.38D-09
 ErrMax= 1.38D-09  0.00D+00 EMaxC= 1.00D-01 BMatC= 9.15D-17 BMatP= 1.49D-15
 IDIUse=1 WtCom= 1.00D+00 WtEn= 0.00D+00
 Coeff-Com:  0.686D-05-0.338D-04 0.134D-03-0.600D-03 0.180D-02-0.276D-02
 Coeff-Com: -0.433D-02 0.714D-01-0.259D+00 0.642D+00-0.117D+01 0.173D+01
 Coeff:      0.686D-05-0.338D-04 0.134D-03-0.600D-03 0.180D-02-0.276D-02
 Coeff:     -0.433D-02 0.714D-01-0.259D+00 0.642D+00-0.117D+01 0.173D+01
 Gap=     0.343 Goal=   None    Shift=    0.000
 RMSDP=2.83D-09 MaxDP=1.47D-08 DE=-7.11D-14 OVMax= 2.86D-08

 Cycle  13  Pass 2  IDiag  1:
 SCF Done:  E(RAM1) =  0.518128415624E-01 A.U. after   13 cycles
            NFock= 12  Conv=0.28D-08     -V/T= 1.0036
 KE=-1.452596779382D+01 PE=-1.549041403380D+02 EE= 7.616546960109D+01
 Leave Link  502 at Sun Apr 10 09:54:40 2016, MaxMem=    33554432 cpu:         0.0
 (Enter /home/dustin/Applications/g09/g09/l701.exe)
 Compute integral first derivatives.
 ... and contract with generalized density number  0.
 Leave Link  701 at Sun Apr 10 09:54:40 2016, MaxMem=    33554432 cpu:         0.0
 (Enter /home/dustin/Applications/g09/g09/l702.exe)
 L702 exits ... SP integral derivatives will be done elsewhere.
 Leave Link  702 at Sun Apr 10 09:54:40 2016, MaxMem=    33554432 cpu:         0.0
 (Enter /home/dustin/Applications/g09/g09/l703.exe)
 Compute integral first derivatives, UseDBF=F ICtDFT=           0.
 Integral derivatives from FoFJK, PRISM(SPDF).
 Calling FoFJK, ICntrl=      2127 FMM=F ISym2X=0 I1Cent= 0 IOpClX= 0 NMat=1 NMatS=1 NMatT=0.
 FoFJK:  IHMeth= 8 ICntrl=    2127 DoSepK=F KAlg= 0 I1Cent=   0 FoldK=F
 IRaf=         0 NMat=   1 IRICut=       1 DoRegI=T DoRafI=F ISym2E= 0.
 FoFCou: FMM=F IPFlag=           0 FMFlag=      100000 FMFlg1=         800
         NFxFlg=           0 DoJE=F BraDBF=F KetDBF=F FulRan=T
         wScrn=  0.000000 ICntrl=    2127 IOpCl=  0 I1Cent=           0 NGrid=           0
         NMat0=    1 NMatS0=      1 NMatT0=    0 NMatD0=    1 NMtDS0=    0 NMtDT0=    0
 Symmetry not used in FoFCou.
 Leave Link  703 at Sun Apr 10 09:54:40 2016, MaxMem=    33554432 cpu:         0.0
 (Enter /home/dustin/Applications/g09/g09/l716.exe)
 Dipole        =-1.61511537D-02-1.96398657D-02 2.00713481D-02
 ***** Axes restored to original set *****
 -------------------------------------------------------------------
 Center     Atomic                   Forces (Hartrees/Bohr)
 Number     Number              X              Y              Z
 -------------------------------------------------------------------
      1        6          -0.001632037   -0.019095705   -0.003421277
      2        6          -0.004481405    0.032817242    0.002134418
      3        6          -0.014117729   -0.051816368    0.002211176
      4        6          -0.017765368    0.024594203   -0.007258500
      5        1           0.013671962    0.001805447    0.003832748
      6        1          -0.006732546    0.015586248   -0.002967453
      7        1          -0.005515630   -0.018753615   -0.003193886
      8        1           0.008297696   -0.003973416    0.002667504
      9       16           0.028275056    0.018835964    0.005995270
 -------------------------------------------------------------------
 Cartesian Forces:  Max     0.051816368 RMS     0.016687939
 Leave Link  716 at Sun Apr 10 09:54:40 2016, MaxMem=    33554432 cpu:         0.0
 (Enter /home/dustin/Applications/g09/g09/l103.exe)

 GradGradGradGradGradGradGradGradGradGradGradGradGradGradGradGradGradGrad
 Berny optimization.
 Using GEDIIS/GDIIS optimizer.
 FormGI is forming the generalized inverse of G from B-inverse, IUseBI=4.
 Internal  Forces:  Max     0.033638719 RMS     0.008698665
 Search for a local minimum.
 Step number   2 out of a maximum of   48
 All quantities printed in internal units (Hartrees-Bohrs-Radians)
 RMS Force = .86987D-02 SwitMx=.10000D-02 MixMth= 1
 Mixed Optimization -- RFO/linear search
 Update second derivatives using D2CorX and points    1    2
 DE= -3.00D-02 DEPred=-2.95D-02 R= 1.01D+00
 TightC=F SS=  1.41D+00  RLast= 3.17D-01 DXNew= 5.0454D-01 9.5103D-01
 Trust test= 1.01D+00 RLast= 3.17D-01 DXMaxT set to 5.05D-01
 ITU=  1  0
 Use linear search instead of GDIIS.
     Eigenvalues ---    0.01107   0.01341   0.01657   0.02010   0.02027
     Eigenvalues ---    0.02195   0.15141   0.15926   0.15943   0.16044
     Eigenvalues ---    0.18227   0.22029   0.22899   0.30697   0.39224
     Eigenvalues ---    0.39748   0.40524   0.42602   0.44560   0.47508
     Eigenvalues ---    0.53984
 RFO step:  Lambda=-7.54651052D-03 EMin= 1.10737370D-02
 Quartic linear search produced a step of  0.45415.
 Iteration  1 RMS(Cart)=  0.05592497 RMS(Int)=  0.00279113
 Iteration  2 RMS(Cart)=  0.00278352 RMS(Int)=  0.00088693
 Iteration  3 RMS(Cart)=  0.00000859 RMS(Int)=  0.00088688
 Iteration  4 RMS(Cart)=  0.00000001 RMS(Int)=  0.00088688
 ITry= 1 IFail=0 DXMaxC= 1.69D-01 DCOld= 1.00D+10 DXMaxT= 5.05D-01 DXLimC= 3.00D+00 Rises=F
 Variable       Old X    -DE/DX   Delta X   Delta X   Delta X     New X
                                 (Linear)    (Quad)   (Total)
    R1        2.59516  -0.00037  -0.03734   0.04373   0.00602   2.60118
    R2        2.66443   0.01662   0.02971   0.01464   0.04432   2.70875
    R3        2.04597   0.00894   0.02885  -0.00306   0.02580   2.07177
    R4        2.00615   0.01923   0.04117   0.01180   0.05297   2.05912
    R5        3.21224  -0.01087  -0.03278  -0.00892  -0.04195   3.17030
    R6        2.60100  -0.00377  -0.04780   0.04508  -0.00237   2.59863
    R7        2.00580   0.01618   0.03138   0.01552   0.04690   2.05271
    R8        3.35140  -0.03364  -0.08452  -0.10522  -0.18945   3.16194
    R9        2.03836   0.01196   0.03109   0.00418   0.03527   2.07363
    A1        1.98711  -0.00962  -0.01868  -0.02896  -0.04814   1.93897
    A2        2.14891   0.00624   0.00290   0.03692   0.04000   2.18890
    A3        2.14607   0.00339   0.01583  -0.00758   0.00853   2.15460
    A4        2.19626   0.00046   0.00391   0.00149   0.00554   2.20180
    A5        1.93640   0.00217  -0.00138   0.01559   0.01338   1.94978
    A6        2.14779  -0.00256  -0.00231  -0.01497  -0.01708   2.13071
    A7        2.22418  -0.00053   0.00838  -0.00581   0.00110   2.22528
    A8        1.89664   0.00759   0.00756   0.03963   0.04645   1.94309
    A9        2.15640  -0.00682  -0.01472  -0.02565  -0.04192   2.11448
   A10        1.98268  -0.00533  -0.00088  -0.02527  -0.02631   1.95637
   A11        2.19545  -0.00385  -0.00623  -0.03173  -0.03855   2.15691
   A12        2.10071   0.00933   0.00828   0.06013   0.06805   2.16876
   A13        1.62019   0.00529   0.01414   0.00226   0.01636   1.63655
    D1       -3.01402  -0.00252  -0.01439  -0.07552  -0.08931  -3.10332
    D2        0.04979  -0.00173  -0.01153  -0.04617  -0.05644  -0.00665
    D3        0.17658  -0.00289  -0.01586  -0.08359  -0.09888   0.07770
    D4       -3.04279  -0.00210  -0.01301  -0.05423  -0.06602  -3.10882
    D5       -0.01669   0.00082   0.00604   0.01519   0.02154   0.00486
    D6       -3.05793  -0.00148  -0.00654  -0.02455  -0.02935  -3.08728
    D7        3.07599   0.00127   0.00709   0.02466   0.03195   3.10794
    D8        0.03474  -0.00102  -0.00549  -0.01508  -0.01894   0.01580
    D9       -0.05288   0.00119   0.00896   0.04818   0.05825   0.00537
   D10        3.01348   0.00210   0.01207   0.07739   0.09068   3.10416
   D11        3.00399   0.00215   0.01062   0.09813   0.10877   3.11276
   D12       -0.23192   0.00352   0.02132   0.12998   0.15323  -0.07869
   D13       -0.02266   0.00028   0.00127   0.02096   0.02176  -0.00090
   D14        3.02461   0.00165   0.01197   0.05281   0.06622   3.09084
   D15        0.04310  -0.00081  -0.00598  -0.03937  -0.04560  -0.00251
   D16       -2.98900  -0.00305  -0.01705  -0.11423  -0.12920  -3.11820
         Item               Value     Threshold  Converged?
 Maximum Force            0.033639     0.000450     NO 
 RMS     Force            0.008699     0.000300     NO 
 Maximum Displacement     0.169009     0.001800     NO 
 RMS     Displacement     0.056500     0.001200     NO 
 Predicted change in Energy=-8.657084D-03
 Lowest energy point so far.  Saving SCF results.
 GradGradGradGradGradGradGradGradGradGradGradGradGradGradGradGradGradGrad

 Leave Link  103 at Sun Apr 10 09:54:40 2016, MaxMem=    33554432 cpu:         0.0
 (Enter /home/dustin/Applications/g09/g09/l202.exe)
                          Input orientation:                          
 ---------------------------------------------------------------------
 Center     Atomic      Atomic             Coordinates (Angstroms)
 Number     Number       Type             X           Y           Z
 ---------------------------------------------------------------------
      1          6           0        0.906850   -0.681228   -0.010722
      2          6           0       -0.373751   -1.185836   -0.022658
      3          6           0       -0.381448    1.258980    0.054013
      4          6           0        0.896424    0.751545    0.030595
      5          1           0        1.804706    1.366352   -0.003186
      6          1           0       -0.677605    2.302521    0.110952
      7          1           0       -0.649363   -2.240034   -0.018806
      8          1           0        1.825217   -1.277551   -0.065015
      9         16           0       -1.522693    0.035695    0.025264
 ---------------------------------------------------------------------
                    Distance matrix (angstroms):
                    1          2          3          4          5
     1  C    0.000000
     2  C    1.376484   0.000000
     3  C    2.329873   2.446030   0.000000
     4  C    1.433407   2.317245   1.375134   0.000000
     5  H    2.235797   3.355550   2.189537   1.097317   0.000000
     6  H    3.380541   3.504113   1.086245   2.211232   2.655430
     7  H    2.202666   1.089637   3.510010   3.367706   4.362191
     8  H    1.096333   2.201287   3.364153   2.233614   2.644705
     9  S    2.533368   1.677648   1.673228   2.522815   3.583719
                    6          7          8          9
     6  H    0.000000
     7  H    4.544495   0.000000
     8  H    4.371727   2.655570   0.000000
     9  S    2.420747   2.437948   3.597397   0.000000
 Stoichiometry    C4H4S
 Framework group  C1[X(C4H4S)]
 Deg. of freedom    21
 Full point group                 C1      NOp   1
 RotChk:  IX=1 Diff= 1.30D-01
 Largest Abelian subgroup         C1      NOp   1
 Largest concise Abelian subgroup C1      NOp   1
                         Standard orientation:                         
 ---------------------------------------------------------------------
 Center     Atomic      Atomic             Coordinates (Angstroms)
 Number     Number       Type             X           Y           Z
 ---------------------------------------------------------------------
      1          6           0       -1.275263    0.699846    0.006221
      2          6           0       -0.001920    1.222540   -0.003622
      3          6           0        0.040214   -1.223122    0.001128
      4          6           0       -1.244694   -0.733235    0.005331
      5          1           0       -2.144731   -1.359500   -0.037460
      6          1           0        0.351276   -2.263614    0.024445
      7          1           0        0.259184    2.279945    0.028452
      8          1           0       -2.202262    1.284531   -0.021400
      9         16           0        1.164158    0.016404   -0.003024
 ---------------------------------------------------------------------
 Rotational constants (GHZ):      8.1306124      5.5525889      3.2995566
 Leave Link  202 at Sun Apr 10 09:54:40 2016, MaxMem=    33554432 cpu:         0.0
 (Enter /home/dustin/Applications/g09/g09/l301.exe)

 Semi-emprical parameters in input format:
 Method=8 CoreType=1 PeptideFC=0.0114505045 RIJScale=0.5291772086
 ****
 H       
 PQN=1 NValence=1 F0ss=0.4721553327 ZetaOverlap=1.1880780000 U=-0.4188110042
 Beta=-0.2268825074 CoreKO=1.0589197790 KON=0,0,0,1.0589197790 KON=1,0,1,1.0589197790
 KON=0,1,1,1.0589197790 KON=2,1,1,1.0589197790 EISol=-0.4188110042 EHeat=0.0830298228
 Alpha=1.5252601686
 GCore=0.0085277107,1.4001425905,2.2676713595
 GCore=0.0003534810,1.4001425905,3.4015070392
 GCore=-0.0012733648,0.5600570362,3.9684248791
 ****
 C       
 PQN=2,2 NValence=4 F0ss=0.4494442496 F0sp=0.4215147623 F0pp=0.3768030831 F2pp=0.1898715146
 G1sp=0.2679025821
 ZetaOverlap=1.8086650000,1.6851160000
 U=-1.9120180828,-1.4557965594
 Beta=-0.5775444233,-0.2836784428 DDN=0,1,0.8236736000 DDN=1,1,0.7268015000
 CoreKO=1.1124284736 KON=0,0,0,1.1124284736 KON=1,0,1,0.8219701441 KON=0,1,1,1.1124284736
 KON=2,1,1,0.7783928119 EISol=-4.4398989268 EHeat=0.2723305520 Alpha=1.4014062429
 DipHyp=1.6472524267
 GCore=0.0007885612,1.4001425905,3.0235618126
 GCore=0.0031892455,1.4001425905,3.4959933458
 GCore=-0.0013931594,1.4001425905,3.8739385724
 GCore=-0.0000875022,1.4001425905,5.0077742521
 ****
 S       
 PQN=3,3 NValence=6 F0ss=0.4331396397 F0sp=0.3183640731 F0pp=0.3136271218 F2pp=0.3456917167
 G1sp=0.2791629797
 ZetaOverlap=2.3665150000,1.6672630000,1.0000000000
 U=-2.0834683120,-1.7903186861
 Beta=-0.1440781557,-0.2905136336 DDN=0,1,0.9004265000 DDN=1,1,1.0036329000
 CoreKO=1.1543033468 KON=0,0,0,1.1543033468 KON=1,0,1,0.8464368816 KON=0,1,1,1.1543033468
 KON=2,1,1,0.7746001785 EISol=-7.0460287497 EHeat=0.1058151363 Alpha=1.3026480172
 DipHyp=1.8007493954
 GCore=-0.0353616377,1.2863644833,1.4563457902
 GCore=-0.0008238398,1.6425719595,2.8408498620
 GCore=0.0008565489,3.7964407093,3.7967867236
 ****
 
 Standard basis: VSTO-6G (5D, 7F)
 Ernie: Thresh=  0.10000D-02 Tol=  0.10000D-05 Strict=F.
  NNHCO=     0 NNPyr=     0 NCTC=     0               EPep=         0.000000000
    EC=        63.837588092  ECS=         1.663939677   EG=         0.137554487
   EHC=         0.000000000  EAt=       -26.480868474  AtH=         1.527256636
 EPDDG=         0.000000000  ECC=        65.639082255 EAtT=        28.008125109
 There are    24 symmetry adapted cartesian basis functions of A   symmetry.
 There are    24 symmetry adapted basis functions of A   symmetry.
    24 basis functions,   144 primitive gaussians,    24 cartesian basis functions
    13 alpha electrons       13 beta electrons
       nuclear repulsion energy        93.6472073645 Hartrees.



 Warning!  S  atom    9 may be hypervalent but has no d functions.



 IExCor=    0 DFT=F Ex=HF Corr=None ExCW=0 ScaHFX=  1.000000
 ScaDFX=  1.000000  1.000000  1.000000  1.000000 ScalE2=  1.000000  1.000000
 IRadAn=      0 IRanWt=     -1 IRanGd=            0 ICorTp=0 IEmpDi=  4
 Integral buffers will be    131072 words long.
 Regular integral format.
 Two-electron integral symmetry is turned off.
 Leave Link  301 at Sun Apr 10 09:54:40 2016, MaxMem=    33554432 cpu:         0.0
 (Enter /home/dustin/Applications/g09/g09/l302.exe)
 Do NDO integrals.
 NPDir=0 NMtPBC=     1 NCelOv=     1 NCel=       1 NClECP=     1 NCelD=      1
         NCelK=      1 NCelE2=     1 NClLst=     1 CellRange=     0.0.
 One-electron integrals computed using PRISM.
 NBasis=    24 RedAO= F EigKep=  0.00D+00  NBF=    24
 NBsUse=    24 1.00D-04 EigRej=  0.00D+00 NBFU=    24
 Leave Link  302 at Sun Apr 10 09:54:40 2016, MaxMem=    33554432 cpu:         0.0
 (Enter /home/dustin/Applications/g09/g09/l303.exe)
 DipDrv:  MaxL=1.
 Leave Link  303 at Sun Apr 10 09:54:41 2016, MaxMem=    33554432 cpu:         0.0
 (Enter /home/dustin/Applications/g09/g09/l401.exe)
 Initial guess from the checkpoint file:  "best.chk"
 B after Tr=     0.000000    0.000000    0.000000
         Rot=    0.999196    0.000196   -0.000440   -0.040099 Ang=   4.60 deg.
 Guess basis will be translated and rotated to current coordinates.
 JPrj=0 DoOrth=T DoCkMO=T.
 Leave Link  401 at Sun Apr 10 09:54:41 2016, MaxMem=    33554432 cpu:         0.0
 (Enter /home/dustin/Applications/g09/g09/l502.exe)
 Closed shell SCF:
 Using DIIS extrapolation, IDIIS=  1040.
 Overlap will be assumed to be unity.
 Two-electron integral symmetry not used.
 Keep J ints in memory in canonical form, NReq=888082.
 IVT=       79475 IEndB=       79475 NGot=    33554432 MDV=    33473473
 LenX=    33473473 LenY=    33472456
 Requested convergence on RMS density matrix=1.00D-08 within 128 cycles.
 Requested convergence on MAX density matrix=1.00D-06.
 Requested convergence on             energy=1.00D-06.
 No special actions if energy rises.
 FoFCou: FMM=F IPFlag=           0 FMFlag=           0 FMFlg1=           0
         NFxFlg=           0 DoJE=F BraDBF=F KetDBF=F FulRan=T
         wScrn=  0.000000 ICntrl=     600 IOpCl=  2 I1Cent=           0 NGrid=           0
         NMat0=    1 NMatS0=     54 NMatT0=    0 NMatD0=    1 NMtDS0=    0 NMtDT0=    0
 Symmetry not used in FoFCou.

 Cycle   1  Pass 1  IDiag  1:
 E= 0.510376752344683E-01
 DIIS: error= 5.24D-03 at cycle   1 NSaved=   1.
 NSaved= 1 IEnMin= 1 EnMin= 0.510376752344683E-01 IErMin= 1 ErrMin= 5.24D-03
 ErrMax= 5.24D-03  0.00D+00 EMaxC= 1.00D-01 BMatC= 1.57D-03 BMatP= 1.57D-03
 IDIUse=3 WtCom= 9.48D-01 WtEn= 5.24D-02
 Coeff-Com:  0.100D+01
 Coeff-En:   0.100D+01
 Coeff:      0.100D+01
 GapD=    2.000 DampG=2.000 DampE=1.000 DampFc=2.0000 IDamp=-1.
 RMSDP=3.24D-03 MaxDP=1.30D-02              OVMax= 0.00D+00

 Cycle   2  Pass 1  IDiag  3:
 E= 0.453566701128665E-01 Delta-E=       -0.005681005122 Rises=F Damp=F
 DIIS: error= 1.92D-03 at cycle   2 NSaved=   2.
 NSaved= 2 IEnMin= 2 EnMin= 0.453566701128665E-01 IErMin= 2 ErrMin= 1.92D-03
 ErrMax= 1.92D-03  0.00D+00 EMaxC= 1.00D-01 BMatC= 2.25D-04 BMatP= 1.57D-03
 IDIUse=3 WtCom= 9.81D-01 WtEn= 1.92D-02
 Coeff-Com: -0.486D+00 0.149D+01
 Coeff-En:   0.000D+00 0.100D+01
 Coeff:     -0.477D+00 0.148D+01
 Gap=     0.347 Goal=   None    Shift=    0.000
 RMSDP=2.10D-03 MaxDP=9.46D-03 DE=-5.68D-03 OVMax= 1.04D-02

 Cycle   3  Pass 1  IDiag  3:
 E= 0.441180537683721E-01 Delta-E=       -0.001238616344 Rises=F Damp=F
 DIIS: error= 4.74D-04 at cycle   3 NSaved=   3.
 NSaved= 3 IEnMin= 3 EnMin= 0.441180537683721E-01 IErMin= 3 ErrMin= 4.74D-04
 ErrMax= 4.74D-04  0.00D+00 EMaxC= 1.00D-01 BMatC= 1.23D-05 BMatP= 2.25D-04
 IDIUse=3 WtCom= 9.95D-01 WtEn= 4.74D-03
 Coeff-Com:  0.219D+00-0.804D+00 0.158D+01
 Coeff-En:   0.000D+00 0.000D+00 0.100D+01
 Coeff:      0.218D+00-0.800D+00 0.158D+01
 Gap=     0.347 Goal=   None    Shift=    0.000
 RMSDP=6.87D-04 MaxDP=3.16D-03 DE=-1.24D-03 OVMax= 3.58D-03

 Cycle   4  Pass 1  IDiag  3:
 E= 0.440262806585565E-01 Delta-E=       -0.000091773110 Rises=F Damp=F
 DIIS: error= 1.12D-04 at cycle   4 NSaved=   4.
 NSaved= 4 IEnMin= 4 EnMin= 0.440262806585565E-01 IErMin= 4 ErrMin= 1.12D-04
 ErrMax= 1.12D-04  0.00D+00 EMaxC= 1.00D-01 BMatC= 5.70D-07 BMatP= 1.23D-05
 IDIUse=3 WtCom= 9.99D-01 WtEn= 1.12D-03
 Coeff-Com: -0.690D-01 0.267D+00-0.664D+00 0.147D+01
 Coeff-En:   0.000D+00 0.000D+00 0.000D+00 0.100D+01
 Coeff:     -0.689D-01 0.266D+00-0.663D+00 0.147D+01
 Gap=     0.348 Goal=   None    Shift=    0.000
 RMSDP=1.65D-04 MaxDP=8.17D-04 DE=-9.18D-05 OVMax= 1.42D-03

 Cycle   5  Pass 1  IDiag  3:
 E= 0.440211817458191E-01 Delta-E=       -0.000005098913 Rises=F Damp=F
 DIIS: error= 3.86D-05 at cycle   5 NSaved=   5.
 NSaved= 5 IEnMin= 5 EnMin= 0.440211817458191E-01 IErMin= 5 ErrMin= 3.86D-05
 ErrMax= 3.86D-05  0.00D+00 EMaxC= 1.00D-01 BMatC= 4.83D-08 BMatP= 5.70D-07
 IDIUse=1 WtCom= 1.00D+00 WtEn= 0.00D+00
 Coeff-Com:  0.106D-01-0.444D-01 0.146D+00-0.620D+00 0.151D+01
 Coeff:      0.106D-01-0.444D-01 0.146D+00-0.620D+00 0.151D+01
 Gap=     0.347 Goal=   None    Shift=    0.000
 RMSDP=5.74D-05 MaxDP=3.28D-04 DE=-5.10D-06 OVMax= 5.83D-04

 Cycle   6  Pass 1  IDiag  3:
 E= 0.440206861544397E-01 Delta-E=       -0.000000495591 Rises=F Damp=F
 DIIS: error= 9.38D-06 at cycle   6 NSaved=   6.
 NSaved= 6 IEnMin= 6 EnMin= 0.440206861544397E-01 IErMin= 6 ErrMin= 9.38D-06
 ErrMax= 9.38D-06  0.00D+00 EMaxC= 1.00D-01 BMatC= 3.39D-09 BMatP= 4.83D-08
 IDIUse=1 WtCom= 1.00D+00 WtEn= 0.00D+00
 Coeff-Com: -0.226D-02 0.108D-01-0.487D-01 0.290D+00-0.925D+00 0.168D+01
 Coeff:     -0.226D-02 0.108D-01-0.487D-01 0.290D+00-0.925D+00 0.168D+01
 Gap=     0.347 Goal=   None    Shift=    0.000
 RMSDP=1.62D-05 MaxDP=9.20D-05 DE=-4.96D-07 OVMax= 1.65D-04

 Cycle   7  Pass 1  IDiag  3:
 E= 0.440206507290810E-01 Delta-E=       -0.000000035425 Rises=F Damp=F
 DIIS: error= 1.70D-06 at cycle   7 NSaved=   7.
 NSaved= 7 IEnMin= 7 EnMin= 0.440206507290810E-01 IErMin= 7 ErrMin= 1.70D-06
 ErrMax= 1.70D-06  0.00D+00 EMaxC= 1.00D-01 BMatC= 1.85D-10 BMatP= 3.39D-09
 IDIUse=1 WtCom= 1.00D+00 WtEn= 0.00D+00
 Coeff-Com:  0.879D-03-0.429D-02 0.206D-01-0.129D+00 0.428D+00-0.927D+00
 Coeff-Com:  0.161D+01
 Coeff:      0.879D-03-0.429D-02 0.206D-01-0.129D+00 0.428D+00-0.927D+00
 Coeff:      0.161D+01
 Gap=     0.347 Goal=   None    Shift=    0.000
 RMSDP=3.51D-06 MaxDP=1.89D-05 DE=-3.54D-08 OVMax= 3.00D-05

 Cycle   8  Pass 1  IDiag  3:
 E= 0.440206490400215E-01 Delta-E=       -0.000000001689 Rises=F Damp=F
 DIIS: error= 3.36D-07 at cycle   8 NSaved=   8.
 NSaved= 8 IEnMin= 8 EnMin= 0.440206490400215E-01 IErMin= 8 ErrMin= 3.36D-07
 ErrMax= 3.36D-07  0.00D+00 EMaxC= 1.00D-01 BMatC= 8.02D-12 BMatP= 1.85D-10
 IDIUse=1 WtCom= 1.00D+00 WtEn= 0.00D+00
 Coeff-Com: -0.240D-03 0.125D-02-0.665D-02 0.440D-01-0.149D+00 0.336D+00
 Coeff-Com: -0.709D+00 0.148D+01
 Coeff:     -0.240D-03 0.125D-02-0.665D-02 0.440D-01-0.149D+00 0.336D+00
 Coeff:     -0.709D+00 0.148D+01
 Gap=     0.347 Goal=   None    Shift=    0.000
 RMSDP=6.15D-07 MaxDP=3.68D-06 DE=-1.69D-09 OVMax= 5.82D-06

 Cycle   9  Pass 1  IDiag  3:
 E= 0.440206489730173E-01 Delta-E=       -0.000000000067 Rises=F Damp=F
 DIIS: error= 1.16D-07 at cycle   9 NSaved=   9.
 NSaved= 9 IEnMin= 9 EnMin= 0.440206489730173E-01 IErMin= 9 ErrMin= 1.16D-07
 ErrMax= 1.16D-07  0.00D+00 EMaxC= 1.00D-01 BMatC= 6.18D-13 BMatP= 8.02D-12
 IDIUse=1 WtCom= 1.00D+00 WtEn= 0.00D+00
 Coeff-Com:  0.485D-04-0.246D-03 0.128D-02-0.839D-02 0.282D-01-0.656D-01
 Coeff-Com:  0.161D+00-0.564D+00 0.145D+01
 Coeff:      0.485D-04-0.246D-03 0.128D-02-0.839D-02 0.282D-01-0.656D-01
 Coeff:      0.161D+00-0.564D+00 0.145D+01
 Gap=     0.347 Goal=   None    Shift=    0.000
 RMSDP=1.82D-07 MaxDP=9.74D-07 DE=-6.70D-11 OVMax= 1.75D-06

 Cycle  10  Pass 1  IDiag  3:
 E= 0.440206489673045E-01 Delta-E=       -0.000000000006 Rises=F Damp=F
 DIIS: error= 3.96D-08 at cycle  10 NSaved=  10.
 NSaved=10 IEnMin=10 EnMin= 0.440206489673045E-01 IErMin=10 ErrMin= 3.96D-08
 ErrMax= 3.96D-08  0.00D+00 EMaxC= 1.00D-01 BMatC= 5.98D-14 BMatP= 6.18D-13
 IDIUse=1 WtCom= 1.00D+00 WtEn= 0.00D+00
 Coeff-Com:  0.667D-05-0.297D-04 0.111D-03-0.556D-03 0.179D-02-0.244D-02
 Coeff-Com: -0.610D-02 0.108D+00-0.611D+00 0.151D+01
 Coeff:      0.667D-05-0.297D-04 0.111D-03-0.556D-03 0.179D-02-0.244D-02
 Coeff:     -0.610D-02 0.108D+00-0.611D+00 0.151D+01
 Gap=     0.347 Goal=   None    Shift=    0.000
 RMSDP=6.52D-08 MaxDP=3.46D-07 DE=-5.71D-12 OVMax= 7.78D-07

 Cycle  11  Pass 1  IDiag  3:
 E= 0.440206489663666E-01 Delta-E=       -0.000000000001 Rises=F Damp=F
 DIIS: error= 1.27D-08 at cycle  11 NSaved=  11.
 NSaved=11 IEnMin=11 EnMin= 0.440206489663666E-01 IErMin=11 ErrMin= 1.27D-08
 ErrMax= 1.27D-08  0.00D+00 EMaxC= 1.00D-01 BMatC= 6.22D-15 BMatP= 5.98D-14
 IDIUse=1 WtCom= 1.00D+00 WtEn= 0.00D+00
 Coeff-Com: -0.732D-05 0.348D-04-0.154D-03 0.892D-03-0.295D-02 0.569D-02
 Coeff-Com: -0.586D-02-0.390D-01 0.335D+00-0.111D+01 0.181D+01
 Coeff:     -0.732D-05 0.348D-04-0.154D-03 0.892D-03-0.295D-02 0.569D-02
 Coeff:     -0.586D-02-0.390D-01 0.335D+00-0.111D+01 0.181D+01
 Gap=     0.347 Goal=   None    Shift=    0.000
 RMSDP=2.45D-08 MaxDP=1.54D-07 DE=-9.38D-13 OVMax= 3.31D-07

 Cycle  12  Pass 1  IDiag  3:
 E= 0.440206489663808E-01 Delta-E=        0.000000000000 Rises=F Damp=F
 DIIS: error= 2.71D-09 at cycle  12 NSaved=  12.
 NSaved=12 IEnMin=11 EnMin= 0.440206489663666E-01 IErMin=12 ErrMin= 2.71D-09
 ErrMax= 2.71D-09  0.00D+00 EMaxC= 1.00D-01 BMatC= 3.67D-16 BMatP= 6.22D-15
 IDIUse=1 WtCom= 1.00D+00 WtEn= 0.00D+00
 Coeff-Com:  0.357D-05-0.173D-04 0.805D-04-0.487D-03 0.162D-02-0.324D-02
 Coeff-Com:  0.422D-02 0.128D-01-0.141D+00 0.504D+00-0.100D+01 0.163D+01
 Coeff:      0.357D-05-0.173D-04 0.805D-04-0.487D-03 0.162D-02-0.324D-02
 Coeff:      0.422D-02 0.128D-01-0.141D+00 0.504D+00-0.100D+01 0.163D+01
 Gap=     0.347 Goal=   None    Shift=    0.000
 RMSDP=5.47D-09 MaxDP=3.45D-08 DE= 1.42D-14 OVMax= 7.97D-08

 Cycle  13  Pass 2  IDiag  1:
 SCF Done:  E(RAM1) =  0.440206489664E-01 A.U. after   13 cycles
            NFock= 12  Conv=0.55D-08     -V/T= 1.0030
 KE=-1.453624964213D+01 PE=-1.555871983442D+02 EE= 7.652026127075D+01
 Leave Link  502 at Sun Apr 10 09:54:41 2016, MaxMem=    33554432 cpu:         0.0
 (Enter /home/dustin/Applications/g09/g09/l701.exe)
 Compute integral first derivatives.
 ... and contract with generalized density number  0.
 Leave Link  701 at Sun Apr 10 09:54:41 2016, MaxMem=    33554432 cpu:         0.0
 (Enter /home/dustin/Applications/g09/g09/l702.exe)
 L702 exits ... SP integral derivatives will be done elsewhere.
 Leave Link  702 at Sun Apr 10 09:54:41 2016, MaxMem=    33554432 cpu:         0.0
 (Enter /home/dustin/Applications/g09/g09/l703.exe)
 Compute integral first derivatives, UseDBF=F ICtDFT=           0.
 Integral derivatives from FoFJK, PRISM(SPDF).
 Calling FoFJK, ICntrl=      2127 FMM=F ISym2X=0 I1Cent= 0 IOpClX= 0 NMat=1 NMatS=1 NMatT=0.
 FoFJK:  IHMeth= 8 ICntrl=    2127 DoSepK=F KAlg= 0 I1Cent=   0 FoldK=F
 IRaf=         0 NMat=   1 IRICut=       1 DoRegI=T DoRafI=F ISym2E= 0.
 FoFCou: FMM=F IPFlag=           0 FMFlag=      100000 FMFlg1=         800
         NFxFlg=           0 DoJE=F BraDBF=F KetDBF=F FulRan=T
         wScrn=  0.000000 ICntrl=    2127 IOpCl=  0 I1Cent=           0 NGrid=           0
         NMat0=    1 NMatS0=      1 NMatT0=    0 NMatD0=    1 NMtDS0=    0 NMtDT0=    0
 Symmetry not used in FoFCou.
 Leave Link  703 at Sun Apr 10 09:54:41 2016, MaxMem=    33554432 cpu:         0.0
 (Enter /home/dustin/Applications/g09/g09/l716.exe)
 Dipole        = 1.23660755D-01 4.11904758D-03-8.55256160D-04
 ***** Axes restored to original set *****
 -------------------------------------------------------------------
 Center     Atomic                   Forces (Hartrees/Bohr)
 Number     Number              X              Y              Z
 -------------------------------------------------------------------
      1        6           0.000226655    0.000708586   -0.003277689
      2        6          -0.002334428   -0.000761762    0.003730768
      3        6          -0.003240926   -0.003685684    0.002271993
      4        6           0.005852310    0.004723397   -0.003547147
      5        1          -0.002046606   -0.003265650    0.002126303
      6        1           0.002314645    0.002011766   -0.001129406
      7        1           0.000875064    0.000814422   -0.001679385
      8        1          -0.002804985    0.002245557    0.001649964
      9       16           0.001158271   -0.002790632   -0.000145402
 -------------------------------------------------------------------
[...]
  11        1PY        -0.16337  -0.00016  -0.00003   0.00012   0.26540
  12        1PZ        -0.00007  -0.61241  -0.00483   0.54944   0.00005
  13 4   C  1S          0.06954   0.00000   0.00005   0.00003   0.00035
  14        1PX         0.20589   0.00011   0.00019   0.00006   0.05472
  15        1PY         0.10537   0.00010   0.00014   0.00013  -0.02823
  16        1PZ         0.00008  -0.35367  -0.48299  -0.32758  -0.00004
  17 5   H  1S         -0.16889  -0.00005  -0.00007   0.00002   0.09286
  18 6   H  1S          0.05750   0.00006   0.00003   0.00005  -0.09805
  19 7   H  1S          0.05752   0.00003  -0.00001   0.00005  -0.09803
  20 8   H  1S         -0.16899  -0.00001   0.00006   0.00007   0.09283
  21 9   S  1S          0.51725  -0.00003   0.00002   0.00001  -0.30916
  22        1PX         0.63550   0.00000   0.00015  -0.00002   0.66303
  23        1PY        -0.00018   0.00006   0.00013   0.00008  -0.00007
  24        1PZ        -0.00019   0.00048   0.73006  -0.42592  -0.00006
                          16        17        18        19        20
                           V         V         V         V         V
     Eigenvalues --     0.05000   0.06466   0.15130   0.15942   0.16889
   1 1   C  1S          0.03119  -0.00014   0.31819  -0.08410  -0.34308
   2        1PX         0.04819   0.00007  -0.01898   0.24095   0.07178
   3        1PY         0.09876   0.00003  -0.26861  -0.04742  -0.17713
   4        1PZ         0.00049  -0.61240  -0.00013   0.00004   0.00021
   5 2   C  1S         -0.25145  -0.00013  -0.24759  -0.26824   0.00509
   6        1PX        -0.26705  -0.00021   0.00150  -0.00458  -0.30705
   7        1PY         0.28300   0.00011  -0.23377  -0.26210  -0.16876
   8        1PZ        -0.00032   0.35335  -0.00003  -0.00010  -0.00004
   9 3   C  1S          0.25144   0.00024   0.24727  -0.26826  -0.00548
  10        1PX         0.26707   0.00026  -0.00129  -0.00503   0.30707
  11        1PY         0.28288   0.00018  -0.23382   0.26244  -0.16857
  12        1PZ         0.00014  -0.35349   0.00006  -0.00008   0.00009
  13 4   C  1S         -0.03122  -0.00002  -0.31802  -0.08438   0.34303
  14        1PX        -0.04817  -0.00021   0.01929   0.24083  -0.07143
  15        1PY         0.09878  -0.00001  -0.26877   0.04781  -0.17704
  16        1PZ        -0.00037   0.61249  -0.00009   0.00012  -0.00010
  17 5   H  1S          0.10714   0.00003   0.15231   0.29255  -0.41952
  18 6   H  1S          0.04858  -0.00003  -0.42943   0.45435  -0.19623
  19 7   H  1S         -0.04854  -0.00003   0.42960   0.45393   0.19677
  20 8   H  1S         -0.10712   0.00006  -0.15221   0.29217   0.41992
  21 9   S  1S          0.00001  -0.00005   0.00002   0.01569   0.00001
  22        1PX         0.00010   0.00008  -0.00004  -0.00111   0.00001
  23        1PY         0.71904   0.00052   0.07339  -0.00013   0.12878
  24        1PZ        -0.00002   0.00005  -0.00001   0.00003  -0.00001
                          21        22        23        24
                           V         V         V         V
     Eigenvalues --     0.17311   0.18590   0.19850   0.20646
   1 1   C  1S          0.02189   0.34421  -0.16355  -0.12474
   2        1PX         0.40135   0.09334   0.12981  -0.51344
   3        1PY        -0.04074   0.31036   0.55518   0.09597
   4        1PZ        -0.00001  -0.00016   0.00009   0.00000
   5 2   C  1S         -0.07196  -0.24148  -0.17997   0.17216
   6        1PX         0.24466   0.31434   0.10520  -0.28447
   7        1PY         0.32525  -0.00559  -0.20563  -0.15782
   8        1PZ        -0.00003  -0.00004  -0.00008   0.00008
   9 3   C  1S         -0.07205  -0.24152   0.18000  -0.17244
  10        1PX         0.24444   0.31416  -0.10526   0.28467
  11        1PY        -0.32516   0.00581  -0.20566  -0.15785
  12        1PZ         0.00007   0.00004  -0.00003   0.00006
  13 4   C  1S          0.02198   0.34427   0.16359   0.12495
  14        1PX         0.40127   0.09291  -0.12974   0.51368
  15        1PY         0.04083  -0.31032   0.55517   0.09566
  16        1PZ         0.00012   0.00006   0.00011   0.00015
  17 5   H  1S          0.30117  -0.32488   0.03741   0.27139
  18 6   H  1S         -0.25983   0.11361  -0.24667  -0.04645
  19 7   H  1S         -0.26006   0.11330   0.24661   0.04663
  20 8   H  1S          0.30120  -0.32465  -0.03754  -0.27145
  21 9   S  1S          0.03996  -0.00323   0.00000   0.00000
  22        1PX        -0.11813  -0.04601  -0.00001  -0.00002
  23        1PY        -0.00001   0.00000  -0.01943   0.01208
  24        1PZ         0.00000   0.00000   0.00003  -0.00001
     Density Matrix:
                           1         2         3         4         5
   1 1   C  1S          1.22348
   2        1PX        -0.06864   0.96168
   3        1PY         0.02891  -0.04535   0.93652
   4        1PZ         0.00011   0.00001  -0.00001   1.03510
   5 2   C  1S          0.28494   0.44533   0.19124  -0.00012   1.25654
   6        1PX        -0.45963  -0.53529  -0.31001   0.00017   0.05605
   7        1PY        -0.14560  -0.22527   0.03744  -0.00001   0.03048
   8        1PZ         0.00023   0.00012   0.00002   0.79299  -0.00007
   9 3   C  1S         -0.03680  -0.03008   0.02048   0.00000   0.00276
  10        1PX         0.00341  -0.03555  -0.07494  -0.00002   0.04491
  11        1PY        -0.03698  -0.01624  -0.00275  -0.00001  -0.01301
  12        1PZ        -0.00002   0.00000  -0.00003  -0.07281   0.00006
  13 4   C  1S          0.27223  -0.01376  -0.46871  -0.00012  -0.03681
  14        1PX        -0.01364   0.11531   0.03481  -0.00010  -0.03009
  15        1PY         0.46877  -0.03500  -0.65934  -0.00022  -0.02049
  16        1PZ         0.00017  -0.00003  -0.00015   0.53546  -0.00003
  17 5   H  1S         -0.05193  -0.00760   0.06712   0.00001   0.05558
  18 6   H  1S          0.05299   0.00267  -0.07007  -0.00003   0.04593
  19 7   H  1S         -0.03324  -0.04382  -0.01562   0.00004   0.56355
  20 8   H  1S          0.57106  -0.65687   0.43046  -0.00012  -0.05165
  21 9   S  1S          0.00333  -0.00519   0.02422   0.00001   0.15047
  22        1PX         0.03620   0.03133  -0.01863  -0.00007  -0.33541
  23        1PY        -0.00656  -0.06749  -0.03772  -0.00004   0.38545
  24        1PZ        -0.00007   0.00002   0.00004  -0.27912  -0.00005
                           6         7         8         9        10
   6        1PX         0.98708
   7        1PY         0.00311   1.04918
   8        1PZ         0.00008  -0.00001   1.14632
   9 3   C  1S          0.04492   0.01300  -0.00002   1.25651
  10        1PX         0.01774  -0.00019   0.00005   0.05608   0.98710
  11        1PY         0.00019   0.02934  -0.00005  -0.03048  -0.00309
  12        1PZ        -0.00008   0.00001  -0.35406   0.00002  -0.00004
  13 4   C  1S          0.00342   0.03698  -0.00001   0.28496  -0.45963
  14        1PX        -0.03551   0.01626   0.00002   0.44528  -0.53513
  15        1PY         0.07497  -0.00276  -0.00005  -0.19134   0.31014
  16        1PZ         0.00000   0.00005  -0.07282   0.00010  -0.00022
  17 5   H  1S         -0.05053  -0.02686   0.00002  -0.05166   0.05821
  18 6   H  1S          0.05097  -0.05422  -0.00001   0.56351   0.18708
  19 7   H  1S          0.18733   0.76722   0.00008   0.04593   0.05097
  20 8   H  1S          0.05822   0.03297  -0.00008   0.05558  -0.05052
  21 9   S  1S          0.16832  -0.18196  -0.00002   0.15048   0.16838
  22        1PX        -0.31145   0.42771   0.00004  -0.33558  -0.31174
  23        1PY         0.47391  -0.33348   0.00001  -0.38536  -0.47390
  24        1PZ         0.00002  -0.00001   0.46808   0.00007   0.00004
                          11        12        13        14        15
  11        1PY         1.04921
  12        1PZ         0.00004   1.14631
  13 4   C  1S          0.14573  -0.00011   1.22344
  14        1PX         0.22542  -0.00029  -0.06866   0.96172
  15        1PY         0.03734  -0.00006  -0.02892   0.04533   0.93649
  16        1PZ         0.00013   0.79300  -0.00006  -0.00004  -0.00004
  17 5   H  1S         -0.03298   0.00002   0.57108  -0.65700  -0.43024
  18 6   H  1S         -0.76731   0.00010  -0.03322  -0.04378   0.01561
  19 7   H  1S          0.05419  -0.00003   0.05297   0.00269   0.07006
  20 8   H  1S          0.02687  -0.00002  -0.05193  -0.00760  -0.06714
  21 9   S  1S          0.18190  -0.00002   0.00334  -0.00520  -0.02422
  22        1PX        -0.42772   0.00002   0.03620   0.03137   0.01860
  23        1PY        -0.33315   0.00005   0.00654   0.06746  -0.03773
  24        1PZ         0.00014   0.46807   0.00003   0.00006   0.00007
                          16        17        18        19        20
  16        1PZ         1.03509
  17 5   H  1S         -0.00018   0.84764
  18 6   H  1S          0.00000  -0.01788   0.83051
  19 7   H  1S          0.00002  -0.01626  -0.01569   0.83050
  20 8   H  1S         -0.00006  -0.00877  -0.01626  -0.01786   0.84766
  21 9   S  1S          0.00003   0.02206  -0.05336  -0.05336   0.02206
  22        1PX        -0.00001  -0.08122   0.08005   0.08004  -0.08118
  23        1PY        -0.00002  -0.07341   0.03534  -0.03537   0.07342
  24        1PZ        -0.27911   0.00001   0.00001   0.00001   0.00005
                          21        22        23        24
  21 9   S  1S          1.80513
  22        1PX         0.41914   1.08865
  23        1PY        -0.00006  -0.00005   0.92096
  24        1PZ        -0.00003   0.00007   0.00010   1.63718
    Full Mulliken population analysis:
                           1         2         3         4         5
   1 1   C  1S          1.22348
   2        1PX         0.00000   0.96168
   3        1PY         0.00000   0.00000   0.93652
   4        1PZ         0.00000   0.00000   0.00000   1.03510
   5 2   C  1S          0.00000   0.00000   0.00000   0.00000   1.25654
   6        1PX         0.00000   0.00000   0.00000   0.00000   0.00000
   7        1PY         0.00000   0.00000   0.00000   0.00000   0.00000
   8        1PZ         0.00000   0.00000   0.00000   0.00000   0.00000
   9 3   C  1S          0.00000   0.00000   0.00000   0.00000   0.00000
  10        1PX         0.00000   0.00000   0.00000   0.00000   0.00000
  11        1PY         0.00000   0.00000   0.00000   0.00000   0.00000
  12        1PZ         0.00000   0.00000   0.00000   0.00000   0.00000
  13 4   C  1S          0.00000   0.00000   0.00000   0.00000   0.00000
  14        1PX         0.00000   0.00000   0.00000   0.00000   0.00000
  15        1PY         0.00000   0.00000   0.00000   0.00000   0.00000
  16        1PZ         0.00000   0.00000   0.00000   0.00000   0.00000
  17 5   H  1S          0.00000   0.00000   0.00000   0.00000   0.00000
  18 6   H  1S          0.00000   0.00000   0.00000   0.00000   0.00000
  19 7   H  1S          0.00000   0.00000   0.00000   0.00000   0.00000
  20 8   H  1S          0.00000   0.00000   0.00000   0.00000   0.00000
  21 9   S  1S          0.00000   0.00000   0.00000   0.00000   0.00000
  22        1PX         0.00000   0.00000   0.00000   0.00000   0.00000
  23        1PY         0.00000   0.00000   0.00000   0.00000   0.00000
  24        1PZ         0.00000   0.00000   0.00000   0.00000   0.00000
                           6         7         8         9        10
   6        1PX         0.98708
   7        1PY         0.00000   1.04918
   8        1PZ         0.00000   0.00000   1.14632
   9 3   C  1S          0.00000   0.00000   0.00000   1.25651
  10        1PX         0.00000   0.00000   0.00000   0.00000   0.98710
  11        1PY         0.00000   0.00000   0.00000   0.00000   0.00000
  12        1PZ         0.00000   0.00000   0.00000   0.00000   0.00000
  13 4   C  1S          0.00000   0.00000   0.00000   0.00000   0.00000
  14        1PX         0.00000   0.00000   0.00000   0.00000   0.00000
  15        1PY         0.00000   0.00000   0.00000   0.00000   0.00000
  16        1PZ         0.00000   0.00000   0.00000   0.00000   0.00000
  17 5   H  1S          0.00000   0.00000   0.00000   0.00000   0.00000
  18 6   H  1S          0.00000   0.00000   0.00000   0.00000   0.00000
  19 7   H  1S          0.00000   0.00000   0.00000   0.00000   0.00000
  20 8   H  1S          0.00000   0.00000   0.00000   0.00000   0.00000
  21 9   S  1S          0.00000   0.00000   0.00000   0.00000   0.00000
  22        1PX         0.00000   0.00000   0.00000   0.00000   0.00000
  23        1PY         0.00000   0.00000   0.00000   0.00000   0.00000
  24        1PZ         0.00000   0.00000   0.00000   0.00000   0.00000
                          11        12        13        14        15
  11        1PY         1.04921
  12        1PZ         0.00000   1.14631
  13 4   C  1S          0.00000   0.00000   1.22344
  14        1PX         0.00000   0.00000   0.00000   0.96172
  15        1PY         0.00000   0.00000   0.00000   0.00000   0.93649
  16        1PZ         0.00000   0.00000   0.00000   0.00000   0.00000
  17 5   H  1S          0.00000   0.00000   0.00000   0.00000   0.00000
  18 6   H  1S          0.00000   0.00000   0.00000   0.00000   0.00000
  19 7   H  1S          0.00000   0.00000   0.00000   0.00000   0.00000
  20 8   H  1S          0.00000   0.00000   0.00000   0.00000   0.00000
  21 9   S  1S          0.00000   0.00000   0.00000   0.00000   0.00000
  22        1PX         0.00000   0.00000   0.00000   0.00000   0.00000
  23        1PY         0.00000   0.00000   0.00000   0.00000   0.00000
  24        1PZ         0.00000   0.00000   0.00000   0.00000   0.00000
                          16        17        18        19        20
  16        1PZ         1.03509
  17 5   H  1S          0.00000   0.84764
  18 6   H  1S          0.00000   0.00000   0.83051
  19 7   H  1S          0.00000   0.00000   0.00000   0.83050
  20 8   H  1S          0.00000   0.00000   0.00000   0.00000   0.84766
  21 9   S  1S          0.00000   0.00000   0.00000   0.00000   0.00000
  22        1PX         0.00000   0.00000   0.00000   0.00000   0.00000
  23        1PY         0.00000   0.00000   0.00000   0.00000   0.00000
  24        1PZ         0.00000   0.00000   0.00000   0.00000   0.00000
                          21        22        23        24
  21 9   S  1S          1.80513
  22        1PX         0.00000   1.08865
  23        1PY         0.00000   0.00000   0.92096
  24        1PZ         0.00000   0.00000   0.00000   1.63718
     Gross orbital populations:
                           1
   1 1   C  1S          1.22348
   2        1PX         0.96168
   3        1PY         0.93652
   4        1PZ         1.03510
   5 2   C  1S          1.25654
   6        1PX         0.98708
   7        1PY         1.04918
   8        1PZ         1.14632
   9 3   C  1S          1.25651
  10        1PX         0.98710
  11        1PY         1.04921
  12        1PZ         1.14631
  13 4   C  1S          1.22344
  14        1PX         0.96172
  15        1PY         0.93649
  16        1PZ         1.03509
  17 5   H  1S          0.84764
  18 6   H  1S          0.83051
  19 7   H  1S          0.83050
  20 8   H  1S          0.84766
  21 9   S  1S          1.80513
  22        1PX         1.08865
  23        1PY         0.92096
  24        1PZ         1.63718
          Condensed to atoms (all electrons):
               1          2          3          4          5          6
     1  C    4.156774   0.000000   0.000000   0.000000   0.000000   0.000000
     2  C    0.000000   4.439126   0.000000   0.000000   0.000000   0.000000
     3  C    0.000000   0.000000   4.439131   0.000000   0.000000   0.000000
     4  C    0.000000   0.000000   0.000000   4.156738   0.000000   0.000000
     5  H    0.000000   0.000000   0.000000   0.000000   0.847641   0.000000
     6  H    0.000000   0.000000   0.000000   0.000000   0.000000   0.830513
     7  H    0.000000   0.000000   0.000000   0.000000   0.000000   0.000000
     8  H    0.000000   0.000000   0.000000   0.000000   0.000000   0.000000
     9  S    0.000000   0.000000   0.000000   0.000000   0.000000   0.000000
               7          8          9
     1  C    0.000000   0.000000   0.000000
     2  C    0.000000   0.000000   0.000000
     3  C    0.000000   0.000000   0.000000
     4  C    0.000000   0.000000   0.000000
     5  H    0.000000   0.000000   0.000000
     6  H    0.000000   0.000000   0.000000
     7  H    0.830499   0.000000   0.000000
     8  H    0.000000   0.847656   0.000000
     9  S    0.000000   0.000000   5.451924
 Mulliken charges:
               1
     1  C   -0.156774
     2  C   -0.439126
     3  C   -0.439131
     4  C   -0.156738
     5  H    0.152359
     6  H    0.169487
     7  H    0.169501
     8  H    0.152344
     9  S    0.548076
 Sum of Mulliken charges =   0.00000
 Mulliken charges with hydrogens summed into heavy atoms:
               1
     1  C   -0.004429
     2  C   -0.269624
     3  C   -0.269644
     4  C   -0.004379
     9  S    0.548076
 Charge=              0.0000 electrons
 Dipole moment (field-independent basis, Debye):
    X=              0.3434    Y=             -0.0001    Z=             -0.0003  Tot=              0.3434
 N-N= 9.369208719980D+01 E-N=-1.556640673950D+02  KE=-1.454328181425D+01
 Orbital energies and kinetic energies (alpha):
                                 1                 2
   1         O                -1.385647         -1.221757
   2         O                -1.097073         -0.964955
   3         O                -0.919811         -0.786887
   4         O                -0.755663         -0.649379
   5         O                -0.676075         -0.566611
   6         O                -0.602081         -0.493480
   7         O                -0.508166         -0.419513
   8         O                -0.508128         -0.435446
   9         O                -0.489964         -0.408692
  10         O                -0.483462         -0.410048
  11         O                -0.428864         -0.323167
  12         O                -0.351137         -0.313600
  13         O                -0.338743         -0.278105
  14         V                 0.008774         -0.194512
  15         V                 0.034019         -0.149528
  16         V                 0.049998         -0.120352
  17         V                 0.064658         -0.190325
  18         V                 0.151301         -0.229178
  19         V                 0.159420         -0.237343
  20         V                 0.168886         -0.208883
  21         V                 0.173108         -0.162929
  22         V                 0.185898         -0.173048
  23         V                 0.198505         -0.126139
  24         V                 0.206459         -0.122094
 Total kinetic energy from orbitals=-1.454328181425D+01
 Leave Link  601 at Sun Apr 10 09:54:42 2016, MaxMem=    33554432 cpu:         0.0
 (Enter /home/dustin/Applications/g09/g09/l9999.exe)
 1\1\GINC-DUSTIN-DESKTOP\SP\RAM1-Full\STO-3G\C4H4S1\DUSTIN\10-Apr-2016\
 0\\#P AM1(Input,Print) CIS(Singlets,NStates=10) pop(full) geom=Checkpo
 int\\best1\\0,1\C,0,0.9009330374,-0.6754129374,-0.0231217962\C,0,-0.37
 75478721,-1.1872401241,-0.0108949402\C,0,-0.3888764615,1.254428612,0.0
 576734732\C,0,0.8942436584,0.7562338742,0.0166442282\H,0,1.8056357581,
 1.3567871472,0.0139888902\H,0,-0.6598050026,2.3077774403,0.0929514572\
 H,0,-0.6388237623,-2.2433386597,-0.0347103147\H,0,1.8178320076,-1.2664
 436104,-0.0591300561\S,0,-1.5252533629,0.0276512581,0.0470370583\\Vers
 ion=ES64L-G09RevD.01\State=1-A\HF=0.0435976\RMSD=3.401e-09\PG=C01 [X(C
 4H4S1)]\\@


 ACCORDING TO HEN3RY, LIFE IS MUCH LIKE A SEWER........
 YOU GET OUT OF IT JUST WHAT YOU PUT INTO IT...........
                         TOM LEHRER - (THE 3 IS SILENT)
 Job cpu time:       0 days  0 hours  0 minutes  0.2 seconds.
 File lengths (MBytes):  RWF=      6 Int=      0 D2E=      0 Chk=      2 Scr=      1
 Normal termination of Gaussian 09 at Sun Apr 10 09:54:42 2016.
