 Entering Gaussian System, Link 0=g09
 Input=best.com
 Output=best.log
 Initial command:
 /home/dustin/Applications/g09/g09/l1.exe "/tmp/Gau-24765.inp" -scrdir="/tmp/"
 Entering Link 1 = /home/dustin/Applications/g09/g09/l1.exe PID=     24767.
  
 Copyright (c) 1988,1990,1992,1993,1995,1998,2003,2009,2013,
            Gaussian, Inc.  All Rights Reserved.
  
 This is part of the Gaussian(R) 09 program.  It is based on
 the Gaussian(R) 03 system (copyright 2003, Gaussian, Inc.),
 the Gaussian(R) 98 system (copyright 1998, Gaussian, Inc.),
 the Gaussian(R) 94 system (copyright 1995, Gaussian, Inc.),
 the Gaussian 92(TM) system (copyright 1992, Gaussian, Inc.),
 the Gaussian 90(TM) system (copyright 1990, Gaussian, Inc.),
 the Gaussian 88(TM) system (copyright 1988, Gaussian, Inc.),
 the Gaussian 86(TM) system (copyright 1986, Carnegie Mellon
 University), and the Gaussian 82(TM) system (copyright 1983,
 Carnegie Mellon University). Gaussian is a federally registered
 trademark of Gaussian, Inc.
  
 This software contains proprietary and confidential information,
 including trade secrets, belonging to Gaussian, Inc.
  
 This software is provided under written license and may be
 used, copied, transmitted, or stored only in accord with that
 written license.
  
 The following legend is applicable only to US Government
 contracts under FAR:
  
                    RESTRICTED RIGHTS LEGEND
  
 Use, reproduction and disclosure by the US Government is
 subject to restrictions as set forth in subparagraphs (a)
 and (c) of the Commercial Computer Software - Restricted
 Rights clause in FAR 52.227-19.
  
 Gaussian, Inc.
 340 Quinnipiac St., Bldg. 40, Wallingford CT 06492
  
  
 ---------------------------------------------------------------
 Warning -- This program may not be used in any manner that
 competes with the business of Gaussian, Inc. or will provide
 assistance to any competitor of Gaussian, Inc.  The licensee
 of this program is prohibited from giving any competitor of
 Gaussian, Inc. access to this program.  By using this program,
 the user acknowledges that Gaussian, Inc. is engaged in the
 business of creating and licensing software in the field of
 computational chemistry and represents and warrants to the
 licensee that it is not a competitor of Gaussian, Inc. and that
 it will not use this program in any manner prohibited above.
 ---------------------------------------------------------------
  

 Cite this work as:
 Gaussian 09, Revision D.01,
 M. J. Frisch, G. W. Trucks, H. B. Schlegel, G. E. Scuseria, 
 M. A. Robb, J. R. Cheeseman, G. Scalmani, V. Barone, B. Mennucci, 
 G. A. Petersson, H. Nakatsuji, M. Caricato, X. Li, H. P. Hratchian, 
 A. F. Izmaylov, J. Bloino, G. Zheng, J. L. Sonnenberg, M. Hada, 
 M. Ehara, K. Toyota, R. Fukuda, J. Hasegawa, M. Ishida, T. Nakajima, 
 Y. Honda, O. Kitao, H. Nakai, T. Vreven, J. A. Montgomery, Jr., 
 J. E. Peralta, F. Ogliaro, M. Bearpark, J. J. Heyd, E. Brothers, 
 K. N. Kudin, V. N. Staroverov, T. Keith, R. Kobayashi, J. Normand, 
 K. Raghavachari, A. Rendell, J. C. Burant, S. S. Iyengar, J. Tomasi, 
 M. Cossi, N. Rega, J. M. Millam, M. Klene, J. E. Knox, J. B. Cross, 
 V. Bakken, C. Adamo, J. Jaramillo, R. Gomperts, R. E. Stratmann, 
 O. Yazyev, A. J. Austin, R. Cammi, C. Pomelli, J. W. Ochterski, 
 R. L. Martin, K. Morokuma, V. G. Zakrzewski, G. A. Voth, 
 P. Salvador, J. J. Dannenberg, S. Dapprich, A. D. Daniels, 
 O. Farkas, J. B. Foresman, J. V. Ortiz, J. Cioslowski, 
 and D. J. Fox, Gaussian, Inc., Wallingford CT, 2013.
 
 ******************************************
 Gaussian 09:  ES64L-G09RevD.01 24-Apr-2013
                 4-Apr-2016 
 ******************************************
 %chk=best
 -----------------------
 #P AM1(Input,Print) opt
 -----------------------
 1/14=-1,18=20,19=15,26=1,38=1/1,3;
 2/9=110,12=2,17=6,18=5,40=1/2;
 3/5=2,16=1,25=1,41=700000,71=1,135=100,136=1/1,2,3;
 4/35=1/1;
 5/5=2,35=1,38=5/2;
 6/7=2,8=2,9=2,10=2,28=1/1;
 7//1,2,3,16;
 1/14=-1,18=20,19=15,26=1/3(2);
 2/9=110/2;
 99//99;
 2/9=110/2;
 3/5=2,16=1,25=1,41=700000,71=1,135=20,136=1/1,2,3;
 4/5=5,16=3,35=1/1;
 5/5=2,35=1,38=5/2;
 7//1,2,3,16;
 1/14=-1,18=20,19=15,26=1/3(-5);
 2/9=110/2;
 6/7=2,8=2,9=2,10=2,19=2,28=1/1;
 99/9=1/99;
 Leave Link    1 at Mon Apr  4 15:42:42 2016, MaxMem=           0 cpu:         0.0
 (Enter /home/dustin/Applications/g09/g09/l101.exe)
 ----
 best
 ----
 Symbolic Z-matrix:
 Charge =  0 Multiplicity = 1
 6                     0.87123  -0.66334  -0.02701 
 6                    -0.37215  -1.27149   0.03312 
 6                    -0.35614   1.22281   0.05273 
 6                     0.88495   0.71282   0.08503 
 1                     1.78017   1.32797  -0.01689 
 1                    -0.57459   2.32245   0.19829 
 1                    -0.68436  -2.31483   0.06161 
 1                     1.8275   -1.30727  -0.0988 
 16                   -1.59216   0.04811  -0.06929 
 
 NAtoms=      9 NQM=        9 NQMF=       0 NMMI=      0 NMMIF=      0
                NMic=       0 NMicF=      0.
                    Isotopes and Nuclear Properties:
 (Nuclear quadrupole moments (NQMom) in fm**2, nuclear magnetic moments (NMagM)
  in nuclear magnetons)

  Atom         1           2           3           4           5           6           7           8           9
 IAtWgt=          12          12          12          12           1           1           1           1          32
 AtmWgt=  12.0000000  12.0000000  12.0000000  12.0000000   1.0078250   1.0078250   1.0078250   1.0078250  31.9720718
 NucSpn=           0           0           0           0           1           1           1           1           0
 AtZEff=   0.0000000   0.0000000   0.0000000   0.0000000   0.0000000   0.0000000   0.0000000   0.0000000   0.0000000
 NQMom=    0.0000000   0.0000000   0.0000000   0.0000000   0.0000000   0.0000000   0.0000000   0.0000000   0.0000000
 NMagM=    0.0000000   0.0000000   0.0000000   0.0000000   2.7928460   2.7928460   2.7928460   2.7928460   0.0000000
 AtZNuc=   6.0000000   6.0000000   6.0000000   6.0000000   1.0000000   1.0000000   1.0000000   1.0000000  16.0000000
 Leave Link  101 at Mon Apr  4 15:42:42 2016, MaxMem=    33554432 cpu:         0.0
 (Enter /home/dustin/Applications/g09/g09/l103.exe)

 GradGradGradGradGradGradGradGradGradGradGradGradGradGradGradGradGradGrad
 Berny optimization.
 Initialization pass.
                           ----------------------------
                           !    Initial Parameters    !
                           ! (Angstroms and Degrees)  !
 --------------------------                            --------------------------
 ! Name  Definition              Value          Derivative Info.                !
 --------------------------------------------------------------------------------
 ! R1    R(1,2)                  1.3854         estimate D2E/DX2                !
 ! R2    R(1,4)                  1.3808         estimate D2E/DX2                !
 ! R3    R(1,8)                  1.1551         estimate D2E/DX2                !
 ! R4    R(2,7)                  1.0894         estimate D2E/DX2                !
 ! R5    R(2,9)                  1.8001         estimate D2E/DX2                !
 ! R6    R(3,4)                  1.3422         estimate D2E/DX2                !
 ! R7    R(3,6)                  1.1305         estimate D2E/DX2                !
 ! R8    R(3,9)                  1.7095         estimate D2E/DX2                !
 ! R9    R(4,5)                  1.091          estimate D2E/DX2                !
 ! A1    A(2,1,4)              116.2879         estimate D2E/DX2                !
 ! A2    A(2,1,8)              120.0643         estimate D2E/DX2                !
 ! A3    A(4,1,8)              123.5332         estimate D2E/DX2                !
 ! A4    A(1,2,7)              132.7434         estimate D2E/DX2                !
 ! A5    A(1,2,9)              106.4991         estimate D2E/DX2                !
 ! A6    A(7,2,9)              120.6192         estimate D2E/DX2                !
 ! A7    A(4,3,6)              123.0359         estimate D2E/DX2                !
 ! A8    A(4,3,9)              114.1533         estimate D2E/DX2                !
 ! A9    A(6,3,9)              122.537          estimate D2E/DX2                !
 ! A10   A(1,4,3)              111.5652         estimate D2E/DX2                !
 ! A11   A(1,4,5)              124.2318         estimate D2E/DX2                !
 ! A12   A(3,4,5)              122.8384         estimate D2E/DX2                !
 ! A13   A(2,9,3)               90.5528         estimate D2E/DX2                !
 ! D1    D(4,1,2,7)           -173.8242         estimate D2E/DX2                !
 ! D2    D(4,1,2,9)             10.577          estimate D2E/DX2                !
 ! D3    D(8,1,2,7)              2.421          estimate D2E/DX2                !
 ! D4    D(8,1,2,9)           -173.1779         estimate D2E/DX2                !
 ! D5    D(2,1,4,3)             -8.4267         estimate D2E/DX2                !
 ! D6    D(2,1,4,5)           -175.3775         estimate D2E/DX2                !
 ! D7    D(8,1,4,3)            175.4721         estimate D2E/DX2                !
 ! D8    D(8,1,4,5)              8.5212         estimate D2E/DX2                !
 ! D9    D(1,2,9,3)             -7.6983         estimate D2E/DX2                !
 ! D10   D(7,2,9,3)            176.0566         estimate D2E/DX2                !
 ! D11   D(6,3,4,1)            175.8082         estimate D2E/DX2                !
 ! D12   D(6,3,4,5)            -17.0287         estimate D2E/DX2                !
 ! D13   D(9,3,4,1)              1.6871         estimate D2E/DX2                !
 ! D14   D(9,3,4,5)            168.8502         estimate D2E/DX2                !
 ! D15   D(4,3,9,2)              3.6328         estimate D2E/DX2                !
 ! D16   D(6,3,9,2)           -170.5213         estimate D2E/DX2                !
 --------------------------------------------------------------------------------
 Trust Radius=3.00D-01 FncErr=1.00D-07 GrdErr=1.00D-07
 Number of steps in this run=     48 maximum allowed number of steps=    100.
 GradGradGradGradGradGradGradGradGradGradGradGradGradGradGradGradGradGrad

 Leave Link  103 at Mon Apr  4 15:42:42 2016, MaxMem=    33554432 cpu:         0.0
 (Enter /home/dustin/Applications/g09/g09/l202.exe)
                          Input orientation:                          
 ---------------------------------------------------------------------
 Center     Atomic      Atomic             Coordinates (Angstroms)
 Number     Number       Type             X           Y           Z
 ---------------------------------------------------------------------
      1          6           0        0.871232   -0.663340   -0.027014
      2          6           0       -0.372153   -1.271490    0.033115
      3          6           0       -0.356141    1.222812    0.052726
      4          6           0        0.884951    0.712823    0.085029
      5          1           0        1.780169    1.327974   -0.016892
      6          1           0       -0.574594    2.322448    0.198288
      7          1           0       -0.684360   -2.314832    0.061612
      8          1           0        1.827502   -1.307272   -0.098803
      9         16           0       -1.592161    0.048109   -0.069290
 ---------------------------------------------------------------------
                    Distance matrix (angstroms):
                    1          2          3          4          5
     1  C    0.000000
     2  C    1.385449   0.000000
     3  C    2.251749   2.494430   0.000000
     4  C    1.380785   2.349575   1.342178   0.000000
     5  H    2.188972   3.375234   2.140029   1.090969   0.000000
     6  H    3.325072   3.603423   1.130535   2.175774   2.565188
     7  H    2.270495   1.089425   3.552848   3.410276   4.398875
     8  H    1.155099   2.203898   3.345532   2.236734   2.636944
     9  S    2.564420   1.800069   1.709550   2.569386   3.607410
                    6          7          8          9
     6  H    0.000000
     7  H    4.640592   0.000000
     8  H    4.362705   2.711155   0.000000
     9  S    2.505925   2.534705   3.678590   0.000000
 Stoichiometry    C4H4S
 Framework group  C1[X(C4H4S)]
 Deg. of freedom    21
 Full point group                 C1      NOp   1
 Largest Abelian subgroup         C1      NOp   1
 Largest concise Abelian subgroup C1      NOp   1
                         Standard orientation:                         
 ---------------------------------------------------------------------
 Center     Atomic      Atomic             Coordinates (Angstroms)
 Number     Number       Type             X           Y           Z
 ---------------------------------------------------------------------
      1          6           0       -1.261414    0.671803   -0.043171
      2          6           0       -0.025647    1.288247    0.067932
      3          6           0       -0.020197   -1.205780    0.023406
      4          6           0       -1.266158   -0.706856    0.033272
      5          1           0       -2.152666   -1.326403   -0.109832
      6          1           0        0.203740   -2.306997    0.147030
      7          1           0        0.276409    2.333002    0.131952
      8          1           0       -2.220911    1.309609   -0.125771
      9         16           0        1.208370   -0.018356   -0.033251
 ---------------------------------------------------------------------
 Rotational constants (GHZ):      7.9798912      5.3301449      3.2036063
 Leave Link  202 at Mon Apr  4 15:42:42 2016, MaxMem=    33554432 cpu:         0.0
 (Enter /home/dustin/Applications/g09/g09/l301.exe)

 Semi-emprical parameters in input format:
 Method=8 CoreType=1 PeptideFC=0.0110530340 RIJScale=0.5291772086
 ****
 H       
 PQN=1 NValence=1 F0ss=0.4620273394 ZetaOverlap=1.1880780000 U=-0.4839766013
 Beta=-0.2268825074 CoreKO=1.0589197790 KON=0,0,0,1.0520352731 KON=1,0,1,1.0589197790
 KON=0,1,1,0.9934154525 KON=2,1,1,1.0589197790 EISol=-0.4188110042 EHeat=0.0830298228
 Alpha=1.5252601686
 GCore=0.0087703364,1.4001425905,2.2676713595
 GCore=0.0003534810,1.3583935316,3.4015070392
 GCore=-0.0012733648,0.5600570362,3.9684248791
 ****
 C       
 PQN=2,2 NValence=4 F0ss=0.4494442496 F0sp=0.4222769358 F0pp=0.3818176991 F2pp=0.1898715146
 G1sp=0.2615909723
 ZetaOverlap=1.8086650000,1.6665793593
 U=-2.0757031050,-1.4459415072
 Beta=-0.5775444233,-0.2836784428 DDN=0,1,0.8236736000 DDN=1,1,0.7066213442
 CoreKO=1.0803905242 KON=0,0,0,1.1124284736 KON=1,0,1,0.8205706031 KON=0,1,1,1.1124284736
 KON=2,1,1,0.8497601748 EISol=-4.4398989268 EHeat=0.2723305520 Alpha=1.4014062429
 DipHyp=1.6472524267
 GCore=0.0007550116,1.3594359741,3.0235618126
 GCore=0.0030833670,1.4203244271,3.4959933458
 GCore=-0.0013097276,1.4001425905,3.8739385724
 GCore=-0.0000893955,1.4001425905,4.6591966750
 ****
 S       
 PQN=3,3 NValence=6 F0ss=0.4052867719 F0sp=0.3183640731 F0pp=0.3028129500 F2pp=0.3456917167
 G1sp=0.2791629797
 ZetaOverlap=2.3665150000,1.7127111863,0.9721272239
 U=-2.0834683120,-1.8703223752
 Beta=-0.1440781557,-0.2982406555 DDN=0,1,0.8958649594 DDN=1,1,1.0036329000
 CoreKO=1.1543033468 KON=0,0,0,1.1785377074 KON=1,0,1,0.8366289938 KON=0,1,1,1.1404499108
 KON=2,1,1,0.7593850968 EISol=-7.0460287497 EHeat=0.1058151363 Alpha=1.3249601549
 DipHyp=1.7916268390
 GCore=-0.0353616377,1.2863644833,1.4563457902
 GCore=-0.0008238398,1.6520779463,2.8408498620
 GCore=0.0008348218,3.8513530144,3.3994119947
 ****
 
 Standard basis: VSTO-6G (5D, 7F)
 Ernie: Thresh=  0.10000D-02 Tol=  0.10000D-05 Strict=F.
  NNHCO=     0 NNPyr=     0 NCTC=     0               EPep=         0.000000000
    EC=        63.722297690  ECS=         1.610904636   EG=         0.148068154
   EHC=         0.000000000  EAt=       -26.480868474  AtH=         1.527256636
 EPDDG=         0.000000000  ECC=        65.481270481 EAtT=        28.008125109
 There are    24 symmetry adapted cartesian basis functions of A   symmetry.
 There are    24 symmetry adapted basis functions of A   symmetry.
    24 basis functions,   144 primitive gaussians,    24 cartesian basis functions
    13 alpha electrons       13 beta electrons
       nuclear repulsion energy        93.4893955901 Hartrees.
 IExCor=    0 DFT=F Ex=HF Corr=None ExCW=0 ScaHFX=  1.000000
 ScaDFX=  1.000000  1.000000  1.000000  1.000000 ScalE2=  1.000000  1.000000
 IRadAn=      0 IRanWt=     -1 IRanGd=            0 ICorTp=0 IEmpDi=  4
 Integral buffers will be    131072 words long.
 Regular integral format.
 Two-electron integral symmetry is turned off.
 Leave Link  301 at Mon Apr  4 15:42:42 2016, MaxMem=    33554432 cpu:         0.0
 (Enter /home/dustin/Applications/g09/g09/l302.exe)
 Do NDO integrals.
 NPDir=0 NMtPBC=     1 NCelOv=     1 NCel=       1 NClECP=     1 NCelD=      1
         NCelK=      1 NCelE2=     1 NClLst=     1 CellRange=     0.0.
 One-electron integrals computed using PRISM.
 NBasis=    24 RedAO= F EigKep=  0.00D+00  NBF=    24
 NBsUse=    24 1.00D-04 EigRej=  0.00D+00 NBFU=    24
 Leave Link  302 at Mon Apr  4 15:42:42 2016, MaxMem=    33554432 cpu:         0.0
 (Enter /home/dustin/Applications/g09/g09/l303.exe)
 DipDrv:  MaxL=1.
 Leave Link  303 at Mon Apr  4 15:42:42 2016, MaxMem=    33554432 cpu:         0.0
 (Enter /home/dustin/Applications/g09/g09/l401.exe)
 Simple Huckel Guess.
 JPrj=0 DoOrth=F DoCkMO=F.
 Leave Link  401 at Mon Apr  4 15:42:42 2016, MaxMem=    33554432 cpu:         0.0
 (Enter /home/dustin/Applications/g09/g09/l502.exe)
 Closed shell SCF:
 Using DIIS extrapolation, IDIIS=  1040.
 Overlap will be assumed to be unity.
 Two-electron integral symmetry not used.
 Keep J ints in memory in canonical form, NReq=888082.
 IVT=       79475 IEndB=       79475 NGot=    33554432 MDV=    33473473
 LenX=    33473473 LenY=    33472456
 Requested convergence on RMS density matrix=1.00D-08 within 128 cycles.
 Requested convergence on MAX density matrix=1.00D-06.
 Requested convergence on             energy=1.00D-06.
 No special actions if energy rises.
 FoFCou: FMM=F IPFlag=           0 FMFlag=           0 FMFlg1=           0
         NFxFlg=           0 DoJE=F BraDBF=F KetDBF=F FulRan=T
         wScrn=  0.000000 ICntrl=     600 IOpCl=  2 I1Cent=           0 NGrid=           0
         NMat0=    1 NMatS0=     54 NMatT0=    0 NMatD0=    1 NMtDS0=    0 NMtDT0=    0
 Symmetry not used in FoFCou.

 Cycle   1  Pass 1  IDiag  1:
 E=-0.866105438428662    
 DIIS: error= 5.20D-02 at cycle   1 NSaved=   1.
 NSaved= 1 IEnMin= 1 EnMin=-0.866105438428662     IErMin= 1 ErrMin= 5.20D-02
 ErrMax= 5.20D-02  0.00D+00 EMaxC= 1.00D-01 BMatC= 1.34D-01 BMatP= 1.34D-01
 IDIUse=3 WtCom= 4.80D-01 WtEn= 5.20D-01
 Coeff-Com:  0.100D+01
 Coeff-En:   0.100D+01
 Coeff:      0.100D+01
 GapD=    2.000 DampG=2.000 DampE=0.500 DampFc=1.0000 IDamp=-1.
 RMSDP=2.43D-02 MaxDP=1.43D-01              OVMax= 0.00D+00

 Cycle   2  Pass 1  IDiag  1:
 E= -1.23159646661766     Delta-E=       -0.365491028189 Rises=F Damp=F
 DIIS: error= 1.50D-02 at cycle   2 NSaved=   2.
 NSaved= 2 IEnMin= 2 EnMin= -1.23159646661766     IErMin= 2 ErrMin= 1.50D-02
 ErrMax= 1.50D-02  0.00D+00 EMaxC= 1.00D-01 BMatC= 1.18D-02 BMatP= 1.34D-01
 IDIUse=3 WtCom= 8.50D-01 WtEn= 1.50D-01
 Coeff-Com: -0.366D+00 0.137D+01
 Coeff-En:   0.000D+00 0.100D+01
 Coeff:     -0.311D+00 0.131D+01
 RMSDP=1.05D-02 MaxDP=5.64D-02 DE=-3.65D-01 OVMax= 0.00D+00

 Cycle   3  Pass 1  IDiag  3:
 E= -1.27474427347543     Delta-E=       -0.043147806858 Rises=F Damp=F
 DIIS: error= 2.41D-03 at cycle   3 NSaved=   3.
 NSaved= 3 IEnMin= 3 EnMin= -1.27474427347543     IErMin= 3 ErrMin= 2.41D-03
 ErrMax= 2.41D-03  0.00D+00 EMaxC= 1.00D-01 BMatC= 5.03D-04 BMatP= 1.18D-02
 IDIUse=3 WtCom= 9.76D-01 WtEn= 2.41D-02
 Coeff-Com:  0.102D+00-0.515D+00 0.141D+01
 Coeff-En:   0.000D+00 0.000D+00 0.100D+01
 Coeff:      0.995D-01-0.503D+00 0.140D+01
 Gap=     0.299 Goal=   None    Shift=    0.000
 RMSDP=3.56D-03 MaxDP=2.49D-02 DE=-4.31D-02 OVMax= 2.13D-02

 Cycle   4  Pass 1  IDiag  3:
 E= -1.27813111076409     Delta-E=       -0.003386837289 Rises=F Damp=F
 DIIS: error= 9.86D-04 at cycle   4 NSaved=   4.
 NSaved= 4 IEnMin= 4 EnMin= -1.27813111076409     IErMin= 4 ErrMin= 9.86D-04
 ErrMax= 9.86D-04  0.00D+00 EMaxC= 1.00D-01 BMatC= 5.35D-05 BMatP= 5.03D-04
 IDIUse=3 WtCom= 9.90D-01 WtEn= 9.86D-03
 Coeff-Com:  0.369D-02 0.280D-01-0.474D+00 0.144D+01
 Coeff-En:   0.000D+00 0.000D+00 0.000D+00 0.100D+01
 Coeff:      0.365D-02 0.278D-01-0.470D+00 0.144D+01
 Gap=     0.301 Goal=   None    Shift=    0.000
 RMSDP=1.67D-03 MaxDP=1.04D-02 DE=-3.39D-03 OVMax= 1.35D-02

 Cycle   5  Pass 1  IDiag  3:
 E= -1.27865140186873     Delta-E=       -0.000520291105 Rises=F Damp=F
 DIIS: error= 3.49D-04 at cycle   5 NSaved=   5.
 NSaved= 5 IEnMin= 5 EnMin= -1.27865140186873     IErMin= 5 ErrMin= 3.49D-04
 ErrMax= 3.49D-04  0.00D+00 EMaxC= 1.00D-01 BMatC= 7.52D-06 BMatP= 5.35D-05
 IDIUse=3 WtCom= 9.97D-01 WtEn= 3.49D-03
 Coeff-Com: -0.956D-02 0.246D-01 0.151D+00-0.825D+00 0.166D+01
 Coeff-En:   0.000D+00 0.000D+00 0.000D+00 0.000D+00 0.100D+01
 Coeff:     -0.952D-02 0.245D-01 0.151D+00-0.822D+00 0.166D+01
 Gap=     0.302 Goal=   None    Shift=    0.000
 RMSDP=8.29D-04 MaxDP=3.37D-03 DE=-5.20D-04 OVMax= 1.08D-02

 Cycle   6  Pass 1  IDiag  3:
 E= -1.27875905744483     Delta-E=       -0.000107655576 Rises=F Damp=F
 DIIS: error= 2.19D-04 at cycle   6 NSaved=   6.
 NSaved= 6 IEnMin= 6 EnMin= -1.27875905744483     IErMin= 6 ErrMin= 2.19D-04
 ErrMax= 2.19D-04  0.00D+00 EMaxC= 1.00D-01 BMatC= 1.98D-06 BMatP= 7.52D-06
 IDIUse=3 WtCom= 9.98D-01 WtEn= 2.19D-03
 Coeff-Com:  0.892D-02-0.304D-01-0.625D-01 0.534D+00-0.149D+01 0.204D+01
 Coeff-En:   0.000D+00 0.000D+00 0.000D+00 0.000D+00 0.000D+00 0.100D+01
 Coeff:      0.890D-02-0.304D-01-0.624D-01 0.533D+00-0.149D+01 0.204D+01
 Gap=     0.302 Goal=   None    Shift=    0.000
 RMSDP=6.03D-04 MaxDP=2.76D-03 DE=-1.08D-04 OVMax= 9.21D-03

 Cycle   7  Pass 1  IDiag  3:
 E= -1.27879983929947     Delta-E=       -0.000040781855 Rises=F Damp=F
 DIIS: error= 1.08D-04 at cycle   7 NSaved=   7.
 NSaved= 7 IEnMin= 7 EnMin= -1.27879983929947     IErMin= 7 ErrMin= 1.08D-04
 ErrMax= 1.08D-04  0.00D+00 EMaxC= 1.00D-01 BMatC= 5.24D-07 BMatP= 1.98D-06
 IDIUse=3 WtCom= 9.99D-01 WtEn= 1.08D-03
 Coeff-Com: -0.404D-02 0.147D-01 0.204D-01-0.218D+00 0.711D+00-0.159D+01
 Coeff-Com:  0.206D+01
 Coeff-En:   0.000D+00 0.000D+00 0.000D+00 0.000D+00 0.000D+00 0.000D+00
 Coeff-En:   0.100D+01
 Coeff:     -0.403D-02 0.147D-01 0.204D-01-0.218D+00 0.710D+00-0.158D+01
 Coeff:      0.206D+01
 Gap=     0.302 Goal=   None    Shift=    0.000
 RMSDP=4.34D-04 MaxDP=1.95D-03 DE=-4.08D-05 OVMax= 6.89D-03

 Cycle   8  Pass 1  IDiag  3:
 E= -1.27881312871057     Delta-E=       -0.000013289411 Rises=F Damp=F
 DIIS: error= 3.09D-05 at cycle   8 NSaved=   8.
 NSaved= 8 IEnMin= 8 EnMin= -1.27881312871057     IErMin= 8 ErrMin= 3.09D-05
 ErrMax= 3.09D-05  0.00D+00 EMaxC= 1.00D-01 BMatC= 8.22D-08 BMatP= 5.24D-07
 IDIUse=1 WtCom= 1.00D+00 WtEn= 0.00D+00
 Coeff-Com:  0.556D-04-0.697D-03 0.263D-02-0.332D-02-0.293D-01 0.327D+00
 Coeff-Com: -0.102D+01 0.173D+01
 Coeff:      0.556D-04-0.697D-03 0.263D-02-0.332D-02-0.293D-01 0.327D+00
 Coeff:     -0.102D+01 0.173D+01
 Gap=     0.302 Goal=   None    Shift=    0.000
 RMSDP=1.75D-04 MaxDP=8.18D-04 DE=-1.33D-05 OVMax= 2.79D-03

 Cycle   9  Pass 1  IDiag  3:
 E= -1.27881490492040     Delta-E=       -0.000001776210 Rises=F Damp=F
 DIIS: error= 1.15D-05 at cycle   9 NSaved=   9.
 NSaved= 9 IEnMin= 9 EnMin= -1.27881490492040     IErMin= 9 ErrMin= 1.15D-05
 ErrMax= 1.15D-05  0.00D+00 EMaxC= 1.00D-01 BMatC= 8.80D-09 BMatP= 8.22D-08
 IDIUse=1 WtCom= 1.00D+00 WtEn= 0.00D+00
 Coeff-Com: -0.569D-04 0.576D-03-0.238D-02 0.327D-02 0.140D-01-0.153D+00
 Coeff-Com:  0.481D+00-0.978D+00 0.163D+01
 Coeff:     -0.569D-04 0.576D-03-0.238D-02 0.327D-02 0.140D-01-0.153D+00
 Coeff:      0.481D+00-0.978D+00 0.163D+01
 Gap=     0.302 Goal=   None    Shift=    0.000
 RMSDP=3.82D-05 MaxDP=1.87D-04 DE=-1.78D-06 OVMax= 5.49D-04

 Cycle  10  Pass 1  IDiag  3:
 E= -1.27881503760474     Delta-E=       -0.000000132684 Rises=F Damp=F
 DIIS: error= 5.54D-06 at cycle  10 NSaved=  10.
 NSaved=10 IEnMin=10 EnMin= -1.27881503760474     IErMin=10 ErrMin= 5.54D-06
 ErrMax= 5.54D-06  0.00D+00 EMaxC= 1.00D-01 BMatC= 1.67D-09 BMatP= 8.80D-09
 IDIUse=1 WtCom= 1.00D+00 WtEn= 0.00D+00
 Coeff-Com:  0.916D-04-0.593D-03 0.173D-02-0.102D-02-0.129D-01 0.102D+00
 Coeff-Com: -0.303D+00 0.608D+00-0.125D+01 0.186D+01
 Coeff:      0.916D-04-0.593D-03 0.173D-02-0.102D-02-0.129D-01 0.102D+00
 Coeff:     -0.303D+00 0.608D+00-0.125D+01 0.186D+01
 Gap=     0.302 Goal=   None    Shift=    0.000
 RMSDP=1.64D-05 MaxDP=7.67D-05 DE=-1.33D-07 OVMax= 2.03D-04

 Cycle  11  Pass 1  IDiag  3:
 E= -1.27881506715127     Delta-E=       -0.000000029547 Rises=F Damp=F
 DIIS: error= 3.09D-06 at cycle  11 NSaved=  11.
 NSaved=11 IEnMin=11 EnMin= -1.27881506715127     IErMin=11 ErrMin= 3.09D-06
 ErrMax= 3.09D-06  0.00D+00 EMaxC= 1.00D-01 BMatC= 4.00D-10 BMatP= 1.67D-09
 IDIUse=1 WtCom= 1.00D+00 WtEn= 0.00D+00
 Coeff-Com: -0.809D-04 0.513D-03-0.136D-02 0.422D-03 0.114D-01-0.883D-01
 Coeff-Com:  0.262D+00-0.519D+00 0.108D+01-0.200D+01 0.225D+01
 Coeff:     -0.809D-04 0.513D-03-0.136D-02 0.422D-03 0.114D-01-0.883D-01
 Coeff:      0.262D+00-0.519D+00 0.108D+01-0.200D+01 0.225D+01
 Gap=     0.302 Goal=   None    Shift=    0.000
 RMSDP=1.07D-05 MaxDP=4.77D-05 DE=-2.95D-08 OVMax= 1.64D-04

 Cycle  12  Pass 1  IDiag  3:
 E= -1.27881507646768     Delta-E=       -0.000000009316 Rises=F Damp=F
 DIIS: error= 1.37D-06 at cycle  12 NSaved=  12.
 NSaved=12 IEnMin=12 EnMin= -1.27881507646768     IErMin=12 ErrMin= 1.37D-06
 ErrMax= 1.37D-06  0.00D+00 EMaxC= 1.00D-01 BMatC= 8.09D-11 BMatP= 4.00D-10
 IDIUse=1 WtCom= 1.00D+00 WtEn= 0.00D+00
 Coeff-Com:  0.603D-04-0.381D-03 0.949D-03-0.226D-03-0.754D-02 0.607D-01
 Coeff-Com: -0.183D+00 0.362D+00-0.740D+00 0.140D+01-0.196D+01 0.207D+01
 Coeff:      0.603D-04-0.381D-03 0.949D-03-0.226D-03-0.754D-02 0.607D-01
 Coeff:     -0.183D+00 0.362D+00-0.740D+00 0.140D+01-0.196D+01 0.207D+01
 Gap=     0.302 Goal=   None    Shift=    0.000
 RMSDP=5.02D-06 MaxDP=2.39D-05 DE=-9.32D-09 OVMax= 8.02D-05

 Cycle  13  Pass 1  IDiag  3:
 E= -1.27881507829758     Delta-E=       -0.000000001830 Rises=F Damp=F
 DIIS: error= 5.48D-07 at cycle  13 NSaved=  13.
 NSaved=13 IEnMin=13 EnMin= -1.27881507829758     IErMin=13 ErrMin= 5.48D-07
 ErrMax= 5.48D-07  0.00D+00 EMaxC= 1.00D-01 BMatC= 1.43D-11 BMatP= 8.09D-11
 IDIUse=1 WtCom= 1.00D+00 WtEn= 0.00D+00
 Coeff-Com: -0.285D-04 0.171D-03-0.414D-03 0.203D-03 0.245D-02-0.237D-01
 Coeff-Com:  0.734D-01-0.147D+00 0.294D+00-0.536D+00 0.793D+00-0.126D+01
 Coeff-Com:  0.181D+01
 Coeff:     -0.285D-04 0.171D-03-0.414D-03 0.203D-03 0.245D-02-0.237D-01
 Coeff:      0.734D-01-0.147D+00 0.294D+00-0.536D+00 0.793D+00-0.126D+01
 Coeff:      0.181D+01
 Gap=     0.302 Goal=   None    Shift=    0.000
 RMSDP=1.96D-06 MaxDP=9.85D-06 DE=-1.83D-09 OVMax= 2.92D-05

 Cycle  14  Pass 1  IDiag  3:
 E= -1.27881507856384     Delta-E=       -0.000000000266 Rises=F Damp=F
 DIIS: error= 1.72D-07 at cycle  14 NSaved=  14.
 NSaved=14 IEnMin=14 EnMin= -1.27881507856384     IErMin=14 ErrMin= 1.72D-07
 ErrMax= 1.72D-07  0.00D+00 EMaxC= 1.00D-01 BMatC= 1.75D-12 BMatP= 1.43D-11
 IDIUse=1 WtCom= 1.00D+00 WtEn= 0.00D+00
 Coeff-Com:  0.541D-05-0.290D-04 0.697D-04-0.939D-04-0.974D-05 0.253D-02
 Coeff-Com: -0.846D-02 0.164D-01-0.309D-01 0.494D-01-0.747D-01 0.226D+00
 Coeff-Com: -0.737D+00 0.156D+01
 Coeff:      0.541D-05-0.290D-04 0.697D-04-0.939D-04-0.974D-05 0.253D-02
 Coeff:     -0.846D-02 0.164D-01-0.309D-01 0.494D-01-0.747D-01 0.226D+00
 Coeff:     -0.737D+00 0.156D+01
 Gap=     0.302 Goal=   None    Shift=    0.000
 RMSDP=5.39D-07 MaxDP=2.50D-06 DE=-2.66D-10 OVMax= 6.75D-06

 Cycle  15  Pass 1  IDiag  3:
 E= -1.27881507858791     Delta-E=       -0.000000000024 Rises=F Damp=F
 DIIS: error= 5.28D-08 at cycle  15 NSaved=  15.
 NSaved=15 IEnMin=15 EnMin= -1.27881507858791     IErMin=15 ErrMin= 5.28D-08
 ErrMax= 5.28D-08  0.00D+00 EMaxC= 1.00D-01 BMatC= 1.83D-13 BMatP= 1.75D-12
 IDIUse=1 WtCom= 1.00D+00 WtEn= 0.00D+00
 Coeff-Com: -0.603D-06 0.194D-05-0.340D-05 0.298D-04-0.209D-03 0.666D-03
 Coeff-Com: -0.171D-02 0.375D-02-0.850D-02 0.186D-01-0.236D-01-0.172D-01
 Coeff-Com:  0.215D+00-0.795D+00 0.161D+01
 Coeff:     -0.603D-06 0.194D-05-0.340D-05 0.298D-04-0.209D-03 0.666D-03
 Coeff:     -0.171D-02 0.375D-02-0.850D-02 0.186D-01-0.236D-01-0.172D-01
 Coeff:      0.215D+00-0.795D+00 0.161D+01
 Gap=     0.302 Goal=   None    Shift=    0.000
 RMSDP=1.30D-07 MaxDP=6.47D-07 DE=-2.41D-11 OVMax= 1.18D-06

 Cycle  16  Pass 1  IDiag  3:
 E= -1.27881507859003     Delta-E=       -0.000000000002 Rises=F Damp=F
 DIIS: error= 1.34D-08 at cycle  16 NSaved=  16.
 NSaved=16 IEnMin=16 EnMin= -1.27881507859003     IErMin=16 ErrMin= 1.34D-08
 ErrMax= 1.34D-08  0.00D+00 EMaxC= 1.00D-01 BMatC= 1.44D-14 BMatP= 1.83D-13
 IDIUse=1 WtCom= 1.00D+00 WtEn= 0.00D+00
 Large coefficients: NSaved= 16 BigCof=    0.00 CofMax=   10.00 Det=-9.54D-15
 Inversion failed.  Reducing to 15 matrices.
 Coeff-Com:  0.115D-05-0.500D-05-0.561D-05 0.121D-03-0.665D-03 0.195D-02
 Coeff-Com: -0.412D-02 0.895D-02-0.178D-01 0.236D-01-0.993D-02-0.646D-01
 Coeff-Com:  0.310D+00-0.872D+00 0.162D+01
 Coeff:      0.115D-05-0.500D-05-0.561D-05 0.121D-03-0.665D-03 0.195D-02
 Coeff:     -0.412D-02 0.895D-02-0.178D-01 0.236D-01-0.993D-02-0.646D-01
 Coeff:      0.310D+00-0.872D+00 0.162D+01
 Gap=     0.302 Goal=   None    Shift=    0.000
 RMSDP=3.24D-08 MaxDP=1.42D-07 DE=-2.12D-12 OVMax= 3.31D-07

 Cycle  17  Pass 1  IDiag  3:
 E= -1.27881507859003     Delta-E=        0.000000000000 Rises=F Damp=F
 DIIS: error= 3.44D-09 at cycle  17 NSaved=  16.
 NSaved=16 IEnMin=15 EnMin= -1.27881507859003     IErMin=16 ErrMin= 3.44D-09
 ErrMax= 3.44D-09  0.00D+00 EMaxC= 1.00D-01 BMatC= 6.83D-16 BMatP= 1.44D-14
 IDIUse=1 WtCom= 1.00D+00 WtEn= 0.00D+00
 Large coefficients: NSaved= 16 BigCof=    0.00 CofMax=   10.00 Det=-5.40D-16
 Inversion failed.  Reducing to 15 matrices.
 Coeff-Com: -0.713D-06 0.626D-05-0.300D-04 0.855D-04-0.210D-03 0.474D-03
 Coeff-Com: -0.117D-02 0.268D-02-0.376D-02 0.260D-03 0.178D-01-0.769D-01
 Coeff-Com:  0.231D+00-0.577D+00 0.141D+01
 Coeff:     -0.713D-06 0.626D-05-0.300D-04 0.855D-04-0.210D-03 0.474D-03
 Coeff:     -0.117D-02 0.268D-02-0.376D-02 0.260D-03 0.178D-01-0.769D-01
 Coeff:      0.231D+00-0.577D+00 0.141D+01
 Gap=     0.302 Goal=   None    Shift=    0.000
 RMSDP=5.87D-09 MaxDP=2.42D-08 DE= 0.00D+00 OVMax= 5.12D-08

 Cycle  18  Pass 2  IDiag  1:
 SCF Done:  E(RAM1) =  -1.27881507859     A.U. after   18 cycles
            NFock= 17  Conv=0.59D-08     -V/T= 0.9201
 KE=-1.600346250071D+01 PE=-1.540648062942D+02 EE= 7.530005812619D+01
 Leave Link  502 at Mon Apr  4 15:42:42 2016, MaxMem=    33554432 cpu:         0.0
 (Enter /home/dustin/Applications/g09/g09/l601.exe)
 Copying SCF densities to generalized density rwf, IOpCl= 0 IROHF=0.

 **********************************************************************

            Population analysis using the SCF density.

 **********************************************************************

 Orbital symmetries:
       Occupied  (A) (A) (A) (A) (A) (A) (A) (A) (A) (A) (A) (A)
                 (A)
       Virtual   (A) (A) (A) (A) (A) (A) (A) (A) (A) (A) (A)
 The electronic state is 1-A.
 Alpha  occ. eigenvalues --   -1.59807  -1.28012  -1.06357  -0.86702  -0.74310
 Alpha  occ. eigenvalues --   -0.64739  -0.57205  -0.56499  -0.55854  -0.53692
 Alpha  occ. eigenvalues --   -0.49183  -0.43485  -0.37562
 Alpha virt. eigenvalues --   -0.07391  -0.07180  -0.02918   0.00946   0.03312
 Alpha virt. eigenvalues --    0.04055   0.07244   0.07400   0.11573   0.13849
 Alpha virt. eigenvalues --    0.14940
          Condensed to atoms (all electrons):
               1          2          3          4          5          6
     1  C    4.030735   0.000000   0.000000   0.000000   0.000000   0.000000
     2  C    0.000000   3.805130   0.000000   0.000000   0.000000   0.000000
     3  C    0.000000   0.000000   3.800484   0.000000   0.000000   0.000000
     4  C    0.000000   0.000000   0.000000   4.019930   0.000000   0.000000
     5  H    0.000000   0.000000   0.000000   0.000000   0.944401   0.000000
     6  H    0.000000   0.000000   0.000000   0.000000   0.000000   0.953139
     7  H    0.000000   0.000000   0.000000   0.000000   0.000000   0.000000
     8  H    0.000000   0.000000   0.000000   0.000000   0.000000   0.000000
     9  S    0.000000   0.000000   0.000000   0.000000   0.000000   0.000000
               7          8          9
     1  C    0.000000   0.000000   0.000000
     2  C    0.000000   0.000000   0.000000
     3  C    0.000000   0.000000   0.000000
     4  C    0.000000   0.000000   0.000000
     5  H    0.000000   0.000000   0.000000
     6  H    0.000000   0.000000   0.000000
     7  H    0.921005   0.000000   0.000000
     8  H    0.000000   0.962067   0.000000
     9  S    0.000000   0.000000   6.563107
 Mulliken charges:
               1
     1  C   -0.030735
     2  C    0.194870
     3  C    0.199516
     4  C   -0.019930
     5  H    0.055599
     6  H    0.046861
     7  H    0.078995
     8  H    0.037933
     9  S   -0.563107
 Sum of Mulliken charges =   0.00000
 Mulliken charges with hydrogens summed into heavy atoms:
               1
     1  C    0.007198
     2  C    0.273865
     3  C    0.246376
     4  C    0.035668
     9  S   -0.563107
 Charge=              0.0000 electrons
 Dipole moment (field-independent basis, Debye):
    X=             -4.3628    Y=              0.3110    Z=              0.2465  Tot=              4.3808
 N-N= 9.348939559013D+01 E-N=-1.540648062713D+02  KE=-1.600346250071D+01
 Leave Link  601 at Mon Apr  4 15:42:42 2016, MaxMem=    33554432 cpu:         0.0
 (Enter /home/dustin/Applications/g09/g09/l701.exe)
 Compute integral first derivatives.
 ... and contract with generalized density number  0.
 Leave Link  701 at Mon Apr  4 15:42:42 2016, MaxMem=    33554432 cpu:         0.0
 (Enter /home/dustin/Applications/g09/g09/l702.exe)
 L702 exits ... SP integral derivatives will be done elsewhere.
 Leave Link  702 at Mon Apr  4 15:42:42 2016, MaxMem=    33554432 cpu:         0.0
 (Enter /home/dustin/Applications/g09/g09/l703.exe)
 Compute integral first derivatives, UseDBF=F ICtDFT=           0.
 Integral derivatives from FoFJK, PRISM(SPDF).
 Calling FoFJK, ICntrl=      2127 FMM=F ISym2X=0 I1Cent= 0 IOpClX= 0 NMat=1 NMatS=1 NMatT=0.
 FoFJK:  IHMeth= 8 ICntrl=    2127 DoSepK=F KAlg= 0 I1Cent=   0 FoldK=F
 IRaf=         0 NMat=   1 IRICut=       1 DoRegI=T DoRafI=F ISym2E= 0.
 FoFCou: FMM=F IPFlag=           0 FMFlag=      100000 FMFlg1=         800
         NFxFlg=           0 DoJE=F BraDBF=F KetDBF=F FulRan=T
         wScrn=  0.000000 ICntrl=    2127 IOpCl=  0 I1Cent=           0 NGrid=           0
         NMat0=    1 NMatS0=      1 NMatT0=    0 NMatD0=    1 NMtDS0=    0 NMtDT0=    0
 Symmetry not used in FoFCou.
 Leave Link  703 at Mon Apr  4 15:42:42 2016, MaxMem=    33554432 cpu:         0.0
 (Enter /home/dustin/Applications/g09/g09/l716.exe)
 Dipole        =-1.71646790D+00 1.22338111D-01 9.69695510D-02
 ***** Axes restored to original set *****
 -------------------------------------------------------------------
 Center     Atomic                   Forces (Hartrees/Bohr)
 Number     Number              X              Y              Z
 -------------------------------------------------------------------
      1        6           0.043669494   -0.128193394   -0.017183565
      2        6           0.003408354   -0.027204695    0.004296151
      3        6          -0.050208676    0.107893121   -0.007206766
      4        6           0.052316171    0.060001680    0.013962738
      5        1           0.016782927    0.012557535   -0.001145838
      6        1          -0.012218369   -0.012526981    0.000025385
      7        1          -0.011077464   -0.006894409   -0.005386715
      8        1          -0.015895939    0.007395379    0.006114282
      9       16          -0.026776499   -0.013028237    0.006524328
 -------------------------------------------------------------------
 Cartesian Forces:  Max     0.128193394 RMS     0.039614866
 Leave Link  716 at Mon Apr  4 15:42:42 2016, MaxMem=    33554432 cpu:         0.0
 (Enter /home/dustin/Applications/g09/g09/l103.exe)

 GradGradGradGradGradGradGradGradGradGradGradGradGradGradGradGradGradGrad
 Berny optimization.
 FormGI is forming the generalized inverse of G from B-inverse, IUseBI=4.
 Internal  Forces:  Max     0.127686207 RMS     0.028979468
 Search for a local minimum.
 Step number   1 out of a maximum of   48
 All quantities printed in internal units (Hartrees-Bohrs-Radians)
 RMS Force = .28979D-01 SwitMx=.10000D-02 MixMth= 1
 Mixed Optimization -- RFO/linear search
 Second derivative matrix not updated -- first step.
 ITU=  0
     Eigenvalues ---    0.01580   0.01865   0.02319   0.02393   0.02498
     Eigenvalues ---    0.02701   0.15496   0.15932   0.15944   0.15970
     Eigenvalues ---    0.21924   0.22542   0.25813   0.28256   0.30519
     Eigenvalues ---    0.33610   0.34701   0.34879   0.45722   0.47345
     Eigenvalues ---    0.54450
 RFO step:  Lambda=-6.48614647D-02 EMin= 1.58037551D-02
 Linear search not attempted -- first point.
 Maximum step size (   0.300) exceeded in Quadratic search.
    -- Step size scaled by   0.818
 Iteration  1 RMS(Cart)=  0.06735981 RMS(Int)=  0.00183262
 Iteration  2 RMS(Cart)=  0.00152124 RMS(Int)=  0.00086073
 Iteration  3 RMS(Cart)=  0.00000159 RMS(Int)=  0.00086073
 Iteration  4 RMS(Cart)=  0.00000000 RMS(Int)=  0.00086073
 ITry= 1 IFail=0 DXMaxC= 1.72D-01 DCOld= 1.00D+10 DXMaxT= 3.00D-01 DXLimC= 3.00D+00 Rises=F
 Variable       Old X    -DE/DX   Delta X   Delta X   Delta X     New X
                                 (Linear)    (Quad)   (Total)
    R1        2.61812   0.02374   0.00000   0.03397   0.03366   2.65178
    R2        2.60930   0.12769   0.00000   0.19546   0.19540   2.80470
    R3        2.18282  -0.01766   0.00000  -0.04157  -0.04157   2.14125
    R4        2.05872   0.00964   0.00000   0.01905   0.01905   2.07777
    R5        3.40164   0.03027   0.00000   0.06130   0.06110   3.46274
    R6        2.53635   0.08927   0.00000   0.12199   0.12229   2.65864
    R7        2.13640  -0.00982   0.00000  -0.02170  -0.02170   2.11470
    R8        3.23058   0.03585   0.00000   0.06936   0.06964   3.30022
    R9        2.06163   0.02096   0.00000   0.04161   0.04161   2.10325
    A1        2.02961  -0.01091   0.00000  -0.01834  -0.01924   2.01037
    A2        2.09552   0.00240   0.00000  -0.00202  -0.00161   2.09391
    A3        2.15606   0.00848   0.00000   0.01993   0.02033   2.17639
    A4        2.31681   0.00663   0.00000   0.03416   0.03459   2.35140
    A5        1.85876   0.00423   0.00000  -0.00352  -0.00432   1.85444
    A6        2.10520  -0.01079   0.00000  -0.02991  -0.02960   2.07560
    A7        2.14738   0.02978   0.00000   0.08830   0.08735   2.23473
    A8        1.99235  -0.03000   0.00000  -0.07131  -0.07126   1.92109
    A9        2.13867  -0.00045   0.00000  -0.02214  -0.02247   2.11620
   A10        1.94718  -0.00256   0.00000   0.02400   0.02416   1.97134
   A11        2.16825   0.00198   0.00000  -0.00906  -0.00885   2.15940
   A12        2.14394   0.00055   0.00000  -0.01412  -0.01435   2.12958
   A13        1.58044   0.03985   0.00000   0.07563   0.07562   1.65607
    D1       -3.03380  -0.00399   0.00000  -0.02746  -0.02635  -3.06016
    D2        0.18460  -0.00455   0.00000  -0.03717  -0.03625   0.14836
    D3        0.04225  -0.00414   0.00000  -0.03366  -0.03346   0.00879
    D4       -3.02252  -0.00470   0.00000  -0.04337  -0.04336  -3.06588
    D5       -0.14707   0.00001   0.00000   0.00050  -0.00016  -0.14723
    D6       -3.06092   0.00015   0.00000  -0.00195  -0.00325  -3.06416
    D7        3.06257   0.00046   0.00000   0.00792   0.00835   3.07091
    D8        0.14872   0.00059   0.00000   0.00547   0.00526   0.15398
    D9       -0.13436   0.00149   0.00000   0.03831   0.03965  -0.09471
   D10        3.07277   0.00020   0.00000   0.02680   0.02843   3.10119
   D11        3.06843  -0.00291   0.00000  -0.02109  -0.02278   3.04565
   D12       -0.29721  -0.00282   0.00000  -0.01801  -0.01903  -0.31624
   D13        0.02944   0.00458   0.00000   0.03625   0.03507   0.06452
   D14        2.94699   0.00467   0.00000   0.03933   0.03882   2.98581
   D15        0.06340  -0.00597   0.00000  -0.04752  -0.04656   0.01684
   D16       -2.97616  -0.00054   0.00000   0.00218  -0.00087  -2.97703
         Item               Value     Threshold  Converged?
 Maximum Force            0.127686     0.000450     NO 
 RMS     Force            0.028979     0.000300     NO 
 Maximum Displacement     0.171788     0.001800     NO 
 RMS     Displacement     0.066990     0.001200     NO 
 Predicted change in Energy=-3.467783D-02
 Lowest energy point so far.  Saving SCF results.
 GradGradGradGradGradGradGradGradGradGradGradGradGradGradGradGradGradGrad

 Leave Link  103 at Mon Apr  4 15:42:42 2016, MaxMem=    33554432 cpu:         0.0
 (Enter /home/dustin/Applications/g09/g09/l202.exe)
                          Input orientation:                          
 ---------------------------------------------------------------------
 Center     Atomic      Atomic             Coordinates (Angstroms)
 Number     Number       Type             X           Y           Z
 ---------------------------------------------------------------------
      1          6           0        0.907236   -0.728292   -0.031938
      2          6           0       -0.361759   -1.324482    0.025960
      3          6           0       -0.373864    1.312237    0.042400
      4          6           0        0.915752    0.751383    0.083367
      5          1           0        1.833230    1.373631   -0.015568
      6          1           0       -0.665500    2.382330    0.191146
      7          1           0       -0.730084   -2.360377    0.039073
      8          1           0        1.835101   -1.376282   -0.087547
      9         16           0       -1.575666    0.047085   -0.028120
 ---------------------------------------------------------------------
                    Distance matrix (angstroms):
                    1          2          3          4          5
     1  C    0.000000
     2  C    1.403261   0.000000
     3  C    2.410498   2.636798   0.000000
     4  C    1.484185   2.438143   1.406892   0.000000
     5  H    2.296914   3.478435   2.208708   1.112990   0.000000
     6  H    3.492740   3.722902   1.119051   2.274195   2.702564
     7  H    2.312912   1.099506   3.689851   3.520481   4.529501
     8  H    1.133100   2.200399   3.482031   2.324085   2.750855
     9  S    2.601159   1.832401   1.746399   2.591453   3.657930
                    6          7          8          9
     6  H    0.000000
     7  H    4.745584   0.000000
     8  H    4.523034   2.750391   0.000000
     9  S    2.515919   2.552528   3.696328   0.000000
 Stoichiometry    C4H4S
 Framework group  C1[X(C4H4S)]
 Deg. of freedom    21
 Full point group                 C1      NOp   1
 RotChk:  IX=3 Diff= 7.74D-02
 Largest Abelian subgroup         C1      NOp   1
 Largest concise Abelian subgroup C1      NOp   1
                         Standard orientation:                         
 ---------------------------------------------------------------------
 Center     Atomic      Atomic             Coordinates (Angstroms)
 Number     Number       Type             X           Y           Z
 ---------------------------------------------------------------------
      1          6           0       -1.322766    0.669435   -0.037824
      2          6           0       -0.093023    1.339475    0.051173
      3          6           0        0.078981   -1.291216    0.000326
      4          6           0       -1.242681   -0.810570    0.039487
      5          1           0       -2.119546   -1.484296   -0.086800
      6          1           0        0.433411   -2.345274    0.125294
      7          1           0        0.211557    2.395027    0.095381
      8          1           0       -2.287601    1.261420   -0.088447
      9         16           0        1.202445    0.045648   -0.022775
 ---------------------------------------------------------------------
 Rotational constants (GHZ):      7.2059240      5.2680072      3.0476984
 Leave Link  202 at Mon Apr  4 15:42:42 2016, MaxMem=    33554432 cpu:         0.0
 (Enter /home/dustin/Applications/g09/g09/l301.exe)

 Semi-emprical parameters in input format:
 Method=8 CoreType=1 PeptideFC=0.0110530340 RIJScale=0.5291772086
 ****
 H       
 PQN=1 NValence=1 F0ss=0.4620273394 ZetaOverlap=1.1880780000 U=-0.4839766013
 Beta=-0.2268825074 CoreKO=1.0589197790 KON=0,0,0,1.0520352731 KON=1,0,1,1.0589197790
 KON=0,1,1,0.9934154525 KON=2,1,1,1.0589197790 EISol=-0.4188110042 EHeat=0.0830298228
 Alpha=1.5252601686
 GCore=0.0087703364,1.4001425905,2.2676713595
 GCore=0.0003534810,1.3583935316,3.4015070392
 GCore=-0.0012733648,0.5600570362,3.9684248791
 ****
 C       
 PQN=2,2 NValence=4 F0ss=0.4494442496 F0sp=0.4222769358 F0pp=0.3818176991 F2pp=0.1898715146
 G1sp=0.2615909723
 ZetaOverlap=1.8086650000,1.6665793593
 U=-2.0757031050,-1.4459415072
 Beta=-0.5775444233,-0.2836784428 DDN=0,1,0.8236736000 DDN=1,1,0.7066213442
 CoreKO=1.0803905242 KON=0,0,0,1.1124284736 KON=1,0,1,0.8205706031 KON=0,1,1,1.1124284736
 KON=2,1,1,0.8497601748 EISol=-4.4398989268 EHeat=0.2723305520 Alpha=1.4014062429
 DipHyp=1.6472524267
 GCore=0.0007550116,1.3594359741,3.0235618126
 GCore=0.0030833670,1.4203244271,3.4959933458
 GCore=-0.0013097276,1.4001425905,3.8739385724
 GCore=-0.0000893955,1.4001425905,4.6591966750
 ****
 S       
 PQN=3,3 NValence=6 F0ss=0.4052867719 F0sp=0.3183640731 F0pp=0.3028129500 F2pp=0.3456917167
 G1sp=0.2791629797
 ZetaOverlap=2.3665150000,1.7127111863,0.9721272239
 U=-2.0834683120,-1.8703223752
 Beta=-0.1440781557,-0.2982406555 DDN=0,1,0.8958649594 DDN=1,1,1.0036329000
 CoreKO=1.1543033468 KON=0,0,0,1.1785377074 KON=1,0,1,0.8366289938 KON=0,1,1,1.1404499108
 KON=2,1,1,0.7593850968 EISol=-7.0460287497 EHeat=0.1058151363 Alpha=1.3249601549
 DipHyp=1.7916268390
 GCore=-0.0353616377,1.2863644833,1.4563457902
 GCore=-0.0008238398,1.6520779463,2.8408498620
 GCore=0.0008348218,3.8513530144,3.3994119947
 ****
 
 Standard basis: VSTO-6G (5D, 7F)
 Ernie: Thresh=  0.10000D-02 Tol=  0.10000D-05 Strict=F.
  NNHCO=     0 NNPyr=     0 NCTC=     0               EPep=         0.000000000
    EC=        62.404419935  ECS=         1.435563588   EG=         0.153569899
   EHC=         0.000000000  EAt=       -26.480868474  AtH=         1.527256636
 EPDDG=         0.000000000  ECC=        63.993553422 EAtT=        28.008125109
 There are    24 symmetry adapted cartesian basis functions of A   symmetry.
 There are    24 symmetry adapted basis functions of A   symmetry.
    24 basis functions,   144 primitive gaussians,    24 cartesian basis functions
    13 alpha electrons       13 beta electrons
       nuclear repulsion energy        92.0016785309 Hartrees.
 IExCor=    0 DFT=F Ex=HF Corr=None ExCW=0 ScaHFX=  1.000000
 ScaDFX=  1.000000  1.000000  1.000000  1.000000 ScalE2=  1.000000  1.000000
 IRadAn=      0 IRanWt=     -1 IRanGd=            0 ICorTp=0 IEmpDi=  4
 Integral buffers will be    131072 words long.
 Regular integral format.
 Two-electron integral symmetry is turned off.
 Leave Link  301 at Mon Apr  4 15:42:42 2016, MaxMem=    33554432 cpu:         0.0
 (Enter /home/dustin/Applications/g09/g09/l302.exe)
 Do NDO integrals.
 NPDir=0 NMtPBC=     1 NCelOv=     1 NCel=       1 NClECP=     1 NCelD=      1
         NCelK=      1 NCelE2=     1 NClLst=     1 CellRange=     0.0.
 One-electron integrals computed using PRISM.
 NBasis=    24 RedAO= F EigKep=  0.00D+00  NBF=    24
 NBsUse=    24 1.00D-04 EigRej=  0.00D+00 NBFU=    24
 Leave Link  302 at Mon Apr  4 15:42:42 2016, MaxMem=    33554432 cpu:         0.0
 (Enter /home/dustin/Applications/g09/g09/l303.exe)
 DipDrv:  MaxL=1.
 Leave Link  303 at Mon Apr  4 15:42:42 2016, MaxMem=    33554432 cpu:         0.0
 (Enter /home/dustin/Applications/g09/g09/l401.exe)
 Initial guess from the checkpoint file:  "best.chk"
 B after Tr=     0.000000    0.000000    0.000000
         Rot=    0.999653   -0.000399   -0.000634   -0.026325 Ang=  -3.02 deg.
 Guess basis will be translated and rotated to current coordinates.
 JPrj=0 DoOrth=T DoCkMO=T.
 Leave Link  401 at Mon Apr  4 15:42:43 2016, MaxMem=    33554432 cpu:         0.0
 (Enter /home/dustin/Applications/g09/g09/l502.exe)
 Closed shell SCF:
 Using DIIS extrapolation, IDIIS=  1040.
 Overlap will be assumed to be unity.
 Two-electron integral symmetry not used.
 Keep J ints in memory in canonical form, NReq=888082.
 IVT=       79475 IEndB=       79475 NGot=    33554432 MDV=    33473473
 LenX=    33473473 LenY=    33472456
 Requested convergence on RMS density matrix=1.00D-08 within 128 cycles.
 Requested convergence on MAX density matrix=1.00D-06.
 Requested convergence on             energy=1.00D-06.
 No special actions if energy rises.
 FoFCou: FMM=F IPFlag=           0 FMFlag=           0 FMFlg1=           0
         NFxFlg=           0 DoJE=F BraDBF=F KetDBF=F FulRan=T
         wScrn=  0.000000 ICntrl=     600 IOpCl=  2 I1Cent=           0 NGrid=           0
         NMat0=    1 NMatS0=     54 NMatT0=    0 NMatD0=    1 NMtDS0=    0 NMtDT0=    0
 Symmetry not used in FoFCou.

 Cycle   1  Pass 1  IDiag  1:
 E= -1.30020202417590    
 DIIS: error= 6.33D-03 at cycle   1 NSaved=   1.
 NSaved= 1 IEnMin= 1 EnMin= -1.30020202417590     IErMin= 1 ErrMin= 6.33D-03
 ErrMax= 6.33D-03  0.00D+00 EMaxC= 1.00D-01 BMatC= 1.75D-03 BMatP= 1.75D-03
 IDIUse=3 WtCom= 9.37D-01 WtEn= 6.33D-02
 Coeff-Com:  0.100D+01
 Coeff-En:   0.100D+01
 Coeff:      0.100D+01
 GapD=    2.000 DampG=2.000 DampE=1.000 DampFc=2.0000 IDamp=-1.
 RMSDP=3.01D-03 MaxDP=1.62D-02              OVMax= 0.00D+00

 Cycle   2  Pass 1  IDiag  3:
 E= -1.30550014386452     Delta-E=       -0.005298119689 Rises=F Damp=F
 DIIS: error= 1.53D-03 at cycle   2 NSaved=   2.
 NSaved= 2 IEnMin= 2 EnMin= -1.30550014386452     IErMin= 2 ErrMin= 1.53D-03
 ErrMax= 1.53D-03  0.00D+00 EMaxC= 1.00D-01 BMatC= 1.88D-04 BMatP= 1.75D-03
 IDIUse=3 WtCom= 9.85D-01 WtEn= 1.53D-02
 Coeff-Com: -0.361D+00 0.136D+01
 Coeff-En:   0.000D+00 0.100D+01
 Coeff:     -0.355D+00 0.136D+01
 Gap=     0.297 Goal=   None    Shift=    0.000
 RMSDP=1.82D-03 MaxDP=7.32D-03 DE=-5.30D-03 OVMax= 1.03D-02

 Cycle   3  Pass 1  IDiag  3:
 E= -1.30652586403885     Delta-E=       -0.001025720174 Rises=F Damp=F
 DIIS: error= 4.77D-04 at cycle   3 NSaved=   3.
 NSaved= 3 IEnMin= 3 EnMin= -1.30652586403885     IErMin= 3 ErrMin= 4.77D-04
 ErrMax= 4.77D-04  0.00D+00 EMaxC= 1.00D-01 BMatC= 1.85D-05 BMatP= 1.88D-04
 IDIUse=3 WtCom= 9.95D-01 WtEn= 4.77D-03
 Coeff-Com:  0.186D+00-0.875D+00 0.169D+01
 Coeff-En:   0.000D+00 0.000D+00 0.100D+01
 Coeff:      0.186D+00-0.871D+00 0.169D+01
 Gap=     0.298 Goal=   None    Shift=    0.000
 RMSDP=1.05D-03 MaxDP=4.42D-03 DE=-1.03D-03 OVMax= 8.09D-03

 Cycle   4  Pass 1  IDiag  3:
 E= -1.30672320904147     Delta-E=       -0.000197345003 Rises=F Damp=F
 DIIS: error= 2.65D-04 at cycle   4 NSaved=   4.
 NSaved= 4 IEnMin= 4 EnMin= -1.30672320904147     IErMin= 4 ErrMin= 2.65D-04
 ErrMax= 2.65D-04  0.00D+00 EMaxC= 1.00D-01 BMatC= 3.04D-06 BMatP= 1.85D-05
 IDIUse=3 WtCom= 9.97D-01 WtEn= 2.65D-03
 Coeff-Com: -0.112D+00 0.552D+00-0.128D+01 0.184D+01
 Coeff-En:   0.000D+00 0.000D+00 0.000D+00 0.100D+01
 Coeff:     -0.112D+00 0.551D+00-0.127D+01 0.183D+01
 Gap=     0.298 Goal=   None    Shift=    0.000
 RMSDP=6.06D-04 MaxDP=2.81D-03 DE=-1.97D-04 OVMax= 6.25D-03

 Cycle   5  Pass 1  IDiag  3:
 E= -1.30677595343182     Delta-E=       -0.000052744390 Rises=F Damp=F
 DIIS: error= 1.49D-04 at cycle   5 NSaved=   5.
 NSaved= 5 IEnMin= 5 EnMin= -1.30677595343182     IErMin= 5 ErrMin= 1.49D-04
 ErrMax= 1.49D-04  0.00D+00 EMaxC= 1.00D-01 BMatC= 9.38D-07 BMatP= 3.04D-06
 IDIUse=3 WtCom= 9.99D-01 WtEn= 1.49D-03
 Coeff-Com:  0.805D-02-0.558D-01 0.211D+00-0.971D+00 0.181D+01
 Coeff-En:   0.000D+00 0.000D+00 0.000D+00 0.000D+00 0.100D+01
 Coeff:      0.804D-02-0.557D-01 0.211D+00-0.969D+00 0.181D+01
 Gap=     0.298 Goal=   None    Shift=    0.000
 RMSDP=4.70D-04 MaxDP=2.15D-03 DE=-5.27D-05 OVMax= 5.04D-03

 Cycle   6  Pass 1  IDiag  3:
 E= -1.30679725038355     Delta-E=       -0.000021296952 Rises=F Damp=F
 DIIS: error= 6.38D-05 at cycle   6 NSaved=   6.
 NSaved= 6 IEnMin= 6 EnMin= -1.30679725038355     IErMin= 6 ErrMin= 6.38D-05
 ErrMax= 6.38D-05  0.00D+00 EMaxC= 1.00D-01 BMatC= 2.29D-07 BMatP= 9.38D-07
 IDIUse=1 WtCom= 1.00D+00 WtEn= 0.00D+00
 Coeff-Com:  0.226D-01-0.108D+00 0.216D+00 0.766D-01-0.120D+01 0.199D+01
 Coeff:      0.226D-01-0.108D+00 0.216D+00 0.766D-01-0.120D+01 0.199D+01
 Gap=     0.298 Goal=   None    Shift=    0.000
 RMSDP=3.17D-04 MaxDP=1.42D-03 DE=-2.13D-05 OVMax= 3.62D-03

 Cycle   7  Pass 1  IDiag  3:
 E= -1.30680308898155     Delta-E=       -0.000005838598 Rises=F Damp=F
 DIIS: error= 2.01D-05 at cycle   7 NSaved=   7.
 NSaved= 7 IEnMin= 7 EnMin= -1.30680308898155     IErMin= 7 ErrMin= 2.01D-05
 ErrMax= 2.01D-05  0.00D+00 EMaxC= 1.00D-01 BMatC= 2.33D-08 BMatP= 2.29D-07
 IDIUse=1 WtCom= 1.00D+00 WtEn= 0.00D+00
 Coeff-Com: -0.159D-01 0.765D-01-0.164D+00 0.671D-01 0.536D+00-0.127D+01
 Coeff-Com:  0.177D+01
 Coeff:     -0.159D-01 0.765D-01-0.164D+00 0.671D-01 0.536D+00-0.127D+01
 Coeff:      0.177D+01
 Gap=     0.298 Goal=   None    Shift=    0.000
 RMSDP=8.21D-05 MaxDP=3.29D-04 DE=-5.84D-06 OVMax= 1.00D-03

 Cycle   8  Pass 1  IDiag  3:
 E= -1.30680351914887     Delta-E=       -0.000000430167 Rises=F Damp=F
 DIIS: error= 7.67D-06 at cycle   8 NSaved=   8.
 NSaved= 8 IEnMin= 8 EnMin= -1.30680351914887     IErMin= 8 ErrMin= 7.67D-06
 ErrMax= 7.67D-06  0.00D+00 EMaxC= 1.00D-01 BMatC= 2.28D-09 BMatP= 2.33D-08
 IDIUse=1 WtCom= 1.00D+00 WtEn= 0.00D+00
 Coeff-Com:  0.777D-02-0.372D-01 0.805D-01-0.484D-01-0.211D+00 0.565D+00
 Coeff-Com: -0.102D+01 0.166D+01
 Coeff:      0.777D-02-0.372D-01 0.805D-01-0.484D-01-0.211D+00 0.565D+00
 Coeff:     -0.102D+01 0.166D+01
 Gap=     0.298 Goal=   None    Shift=    0.000
 RMSDP=1.82D-05 MaxDP=8.26D-05 DE=-4.30D-07 OVMax= 2.30D-04

 Cycle   9  Pass 1  IDiag  3:
 E= -1.30680355094276     Delta-E=       -0.000000031794 Rises=F Damp=F
 DIIS: error= 3.19D-06 at cycle   9 NSaved=   9.
 NSaved= 9 IEnMin= 9 EnMin= -1.30680355094276     IErMin= 9 ErrMin= 3.19D-06
 ErrMax= 3.19D-06  0.00D+00 EMaxC= 1.00D-01 BMatC= 2.81D-10 BMatP= 2.28D-09
 IDIUse=1 WtCom= 1.00D+00 WtEn= 0.00D+00
 Coeff-Com: -0.442D-02 0.212D-01-0.459D-01 0.293D-01 0.115D+00-0.314D+00
 Coeff-Com:  0.591D+00-0.124D+01 0.185D+01
 Coeff:     -0.442D-02 0.212D-01-0.459D-01 0.293D-01 0.115D+00-0.314D+00
 Coeff:      0.591D+00-0.124D+01 0.185D+01
 Gap=     0.298 Goal=   None    Shift=    0.000
 RMSDP=6.33D-06 MaxDP=3.97D-05 DE=-3.18D-08 OVMax= 7.53D-05

 Cycle  10  Pass 1  IDiag  3:
 E= -1.30680355486274     Delta-E=       -0.000000003920 Rises=F Damp=F
 DIIS: error= 7.37D-07 at cycle  10 NSaved=  10.
 NSaved=10 IEnMin=10 EnMin= -1.30680355486274     IErMin=10 ErrMin= 7.37D-07
 ErrMax= 7.37D-07  0.00D+00 EMaxC= 1.00D-01 BMatC= 2.13D-11 BMatP= 2.81D-10
 IDIUse=1 WtCom= 1.00D+00 WtEn= 0.00D+00
 Coeff-Com:  0.199D-02-0.949D-02 0.205D-01-0.133D-01-0.500D-01 0.138D+00
 Coeff-Com: -0.259D+00 0.565D+00-0.103D+01 0.164D+01
 Coeff:      0.199D-02-0.949D-02 0.205D-01-0.133D-01-0.500D-01 0.138D+00
 Coeff:     -0.259D+00 0.565D+00-0.103D+01 0.164D+01
 Gap=     0.298 Goal=   None    Shift=    0.000
 RMSDP=1.58D-06 MaxDP=1.01D-05 DE=-3.92D-09 OVMax= 1.75D-05

 Cycle  11  Pass 1  IDiag  3:
 E= -1.30680355515634     Delta-E=       -0.000000000294 Rises=F Damp=F
 DIIS: error= 2.27D-07 at cycle  11 NSaved=  11.
 NSaved=11 IEnMin=11 EnMin= -1.30680355515634     IErMin=11 ErrMin= 2.27D-07
 ErrMax= 2.27D-07  0.00D+00 EMaxC= 1.00D-01 BMatC= 2.86D-12 BMatP= 2.13D-11
 IDIUse=1 WtCom= 1.00D+00 WtEn= 0.00D+00
 Coeff-Com: -0.774D-03 0.367D-02-0.789D-02 0.554D-02 0.173D-01-0.494D-01
 Coeff-Com:  0.933D-01-0.207D+00 0.412D+00-0.924D+00 0.166D+01
 Coeff:     -0.774D-03 0.367D-02-0.789D-02 0.554D-02 0.173D-01-0.494D-01
 Coeff:      0.933D-01-0.207D+00 0.412D+00-0.924D+00 0.166D+01
 Gap=     0.298 Goal=   None    Shift=    0.000
 RMSDP=5.85D-07 MaxDP=2.61D-06 DE=-2.94D-10 OVMax= 5.91D-06

 Cycle  12  Pass 1  IDiag  3:
 E= -1.30680355520155     Delta-E=       -0.000000000045 Rises=F Damp=F
 DIIS: error= 1.36D-07 at cycle  12 NSaved=  12.
 NSaved=12 IEnMin=12 EnMin= -1.30680355520155     IErMin=12 ErrMin= 1.36D-07
 ErrMax= 1.36D-07  0.00D+00 EMaxC= 1.00D-01 BMatC= 7.18D-13 BMatP= 2.86D-12
 IDIUse=1 WtCom= 1.00D+00 WtEn= 0.00D+00
 Coeff-Com:  0.235D-03-0.110D-02 0.234D-02-0.199D-02-0.368D-02 0.122D-01
 Coeff-Com: -0.243D-01 0.577D-01-0.135D+00 0.443D+00-0.132D+01 0.197D+01
 Coeff:      0.235D-03-0.110D-02 0.234D-02-0.199D-02-0.368D-02 0.122D-01
 Coeff:     -0.243D-01 0.577D-01-0.135D+00 0.443D+00-0.132D+01 0.197D+01
 Gap=     0.298 Goal=   None    Shift=    0.000
 RMSDP=3.75D-07 MaxDP=1.74D-06 DE=-4.52D-11 OVMax= 4.28D-06

 Cycle  13  Pass 1  IDiag  3:
 E= -1.30680355521675     Delta-E=       -0.000000000015 Rises=F Damp=F
 DIIS: error= 6.83D-08 at cycle  13 NSaved=  13.
 NSaved=13 IEnMin=13 EnMin= -1.30680355521675     IErMin=13 ErrMin= 6.83D-08
 ErrMax= 6.83D-08  0.00D+00 EMaxC= 1.00D-01 BMatC= 1.91D-13 BMatP= 7.18D-13
 IDIUse=1 WtCom= 1.00D+00 WtEn= 0.00D+00
 Coeff-Com: -0.671D-04 0.302D-03-0.612D-03 0.782D-03-0.168D-03-0.120D-02
 Coeff-Com:  0.333D-02-0.108D-01 0.427D-01-0.236D+00 0.955D+00-0.210D+01
 Coeff-Com:  0.235D+01
 Coeff:     -0.671D-04 0.302D-03-0.612D-03 0.782D-03-0.168D-03-0.120D-02
 Coeff:      0.333D-02-0.108D-01 0.427D-01-0.236D+00 0.955D+00-0.210D+01
 Coeff:      0.235D+01
 Gap=     0.298 Goal=   None    Shift=    0.000
 RMSDP=2.81D-07 MaxDP=1.38D-06 DE=-1.52D-11 OVMax= 3.27D-06

 Cycle  14  Pass 1  IDiag  3:
 E= -1.30680355522152     Delta-E=       -0.000000000005 Rises=F Damp=F
 DIIS: error= 2.06D-08 at cycle  14 NSaved=  14.
 NSaved=14 IEnMin=14 EnMin= -1.30680355522152     IErMin=14 ErrMin= 2.06D-08
 ErrMax= 2.06D-08  0.00D+00 EMaxC= 1.00D-01 BMatC= 2.49D-14 BMatP= 1.91D-13
 IDIUse=1 WtCom= 1.00D+00 WtEn= 0.00D+00
 Coeff-Com:  0.225D-04-0.958D-04 0.184D-03-0.351D-03 0.531D-03-0.450D-03
 Coeff-Com:  0.128D-03 0.197D-02-0.162D-01 0.110D+00-0.472D+00 0.116D+01
 Coeff-Com: -0.169D+01 0.191D+01
 Coeff:      0.225D-04-0.958D-04 0.184D-03-0.351D-03 0.531D-03-0.450D-03
 Coeff:      0.128D-03 0.197D-02-0.162D-01 0.110D+00-0.472D+00 0.116D+01
 Coeff:     -0.169D+01 0.191D+01
 Gap=     0.298 Goal=   None    Shift=    0.000
 RMSDP=9.89D-08 MaxDP=4.62D-07 DE=-4.77D-12 OVMax= 1.10D-06

 Cycle  15  Pass 1  IDiag  3:
 E= -1.30680355522223     Delta-E=       -0.000000000001 Rises=F Damp=F
 DIIS: error= 4.08D-09 at cycle  15 NSaved=  15.
 NSaved=15 IEnMin=15 EnMin= -1.30680355522223     IErMin=15 ErrMin= 4.08D-09
 ErrMax= 4.08D-09  0.00D+00 EMaxC= 1.00D-01 BMatC= 1.59D-15 BMatP= 2.49D-14
 IDIUse=1 WtCom= 1.00D+00 WtEn= 0.00D+00
 Coeff-Com: -0.346D-07-0.324D-05 0.132D-04 0.743D-04-0.371D-03 0.660D-03
 Coeff-Com: -0.977D-03 0.142D-02 0.135D-02-0.261D-01 0.126D+00-0.331D+00
 Coeff-Com:  0.535D+00-0.840D+00 0.153D+01
 Coeff:     -0.346D-07-0.324D-05 0.132D-04 0.743D-04-0.371D-03 0.660D-03
 Coeff:     -0.977D-03 0.142D-02 0.135D-02-0.261D-01 0.126D+00-0.331D+00
 Coeff:      0.535D+00-0.840D+00 0.153D+01
 Gap=     0.298 Goal=   None    Shift=    0.000
 RMSDP=1.73D-08 MaxDP=8.07D-08 DE=-7.11D-13 OVMax= 1.78D-07

 Cycle  16  Pass 1  IDiag  3:
 E= -1.30680355522225     Delta-E=        0.000000000000 Rises=F Damp=F
 DIIS: error= 1.29D-09 at cycle  16 NSaved=  16.
 NSaved=16 IEnMin=16 EnMin= -1.30680355522225     IErMin=16 ErrMin= 1.29D-09
 ErrMax= 1.29D-09  0.00D+00 EMaxC= 1.00D-01 BMatC= 9.96D-17 BMatP= 1.59D-15
 IDIUse=1 WtCom= 1.00D+00 WtEn= 0.00D+00
 Large coefficients: NSaved= 16 BigCof=    0.00 CofMax=   10.00 Det=-8.20D-17
 Inversion failed.  Reducing to 15 matrices.
 Coeff-Com:  0.130D-05-0.523D-05-0.246D-04 0.128D-03-0.228D-03 0.338D-03
 Coeff-Com: -0.500D-03-0.486D-03 0.924D-02-0.448D-01 0.117D+00-0.190D+00
 Coeff-Com:  0.314D+00-0.738D+00 0.153D+01
 Coeff:      0.130D-05-0.523D-05-0.246D-04 0.128D-03-0.228D-03 0.338D-03
 Coeff:     -0.500D-03-0.486D-03 0.924D-02-0.448D-01 0.117D+00-0.190D+00
 Coeff:      0.314D+00-0.738D+00 0.153D+01
 Gap=     0.298 Goal=   None    Shift=    0.000
 RMSDP=2.94D-09 MaxDP=1.35D-08 DE=-1.42D-14 OVMax= 2.85D-08

 Cycle  17  Pass 2  IDiag  1:
 SCF Done:  E(RAM1) =  -1.30680355522     A.U. after   17 cycles
            NFock= 16  Conv=0.29D-08     -V/T= 0.9176
 KE=-1.586266394262D+01 PE=-1.516227481124D+02 EE= 7.417692996891D+01
 Leave Link  502 at Mon Apr  4 15:42:43 2016, MaxMem=    33554432 cpu:         0.0
 (Enter /home/dustin/Applications/g09/g09/l701.exe)
 Compute integral first derivatives.
 ... and contract with generalized density number  0.
 Leave Link  701 at Mon Apr  4 15:42:43 2016, MaxMem=    33554432 cpu:         0.0
 (Enter /home/dustin/Applications/g09/g09/l702.exe)
 L702 exits ... SP integral derivatives will be done elsewhere.
 Leave Link  702 at Mon Apr  4 15:42:43 2016, MaxMem=    33554432 cpu:         0.0
 (Enter /home/dustin/Applications/g09/g09/l703.exe)
 Compute integral first derivatives, UseDBF=F ICtDFT=           0.
 Integral derivatives from FoFJK, PRISM(SPDF).
 Calling FoFJK, ICntrl=      2127 FMM=F ISym2X=0 I1Cent= 0 IOpClX= 0 NMat=1 NMatS=1 NMatT=0.
 FoFJK:  IHMeth= 8 ICntrl=    2127 DoSepK=F KAlg= 0 I1Cent=   0 FoldK=F
 IRaf=         0 NMat=   1 IRICut=       1 DoRegI=T DoRafI=F ISym2E= 0.
 FoFCou: FMM=F IPFlag=           0 FMFlag=      100000 FMFlg1=         800
         NFxFlg=           0 DoJE=F BraDBF=F KetDBF=F FulRan=T
         wScrn=  0.000000 ICntrl=    2127 IOpCl=  0 I1Cent=           0 NGrid=           0
         NMat0=    1 NMatS0=      1 NMatT0=    0 NMatD0=    1 NMtDS0=    0 NMtDT0=    0
 Symmetry not used in FoFCou.
 Leave Link  703 at Mon Apr  4 15:42:43 2016, MaxMem=    33554432 cpu:         0.0
 (Enter /home/dustin/Applications/g09/g09/l716.exe)
 Dipole        =-1.82194744D+00 3.03140469D-03 8.46966677D-02
 ***** Axes restored to original set *****
 -------------------------------------------------------------------
 Center     Atomic                   Forces (Hartrees/Bohr)
 Number     Number              X              Y              Z
 -------------------------------------------------------------------
      1        6          -0.004223307   -0.017075444   -0.009749615
      2        6           0.026103013    0.000402982    0.003801619
      3        6           0.028538723    0.029551601   -0.017087710
      4        6          -0.013112856    0.001084961    0.015943395
      5        1           0.002289774   -0.000006857   -0.004852317
      6        1          -0.007322209   -0.009897707    0.004485791
      7        1          -0.008137110    0.000733400   -0.004514850
      8        1          -0.006528352    0.006234498    0.004962420
      9       16          -0.017607675   -0.011027433    0.007011267
 -------------------------------------------------------------------
 Cartesian Forces:  Max     0.029551601 RMS     0.012739609
 Leave Link  716 at Mon Apr  4 15:42:43 2016, MaxMem=    33554432 cpu:         0.0
 (Enter /home/dustin/Applications/g09/g09/l103.exe)

 GradGradGradGradGradGradGradGradGradGradGradGradGradGradGradGradGradGrad
 Berny optimization.
 Using GEDIIS/GDIIS optimizer.
 FormGI is forming the generalized inverse of G from B-inverse, IUseBI=4.
 Internal  Forces:  Max     0.017375483 RMS     0.005881701
 Search for a local minimum.
 Step number   2 out of a maximum of   48
 All quantities printed in internal units (Hartrees-Bohrs-Radians)
 RMS Force = .58817D-02 SwitMx=.10000D-02 MixMth= 1
 Mixed Optimization -- RFO/linear search
 Update second derivatives using D2CorX and points    1    2
 DE= -2.80D-02 DEPred=-3.47D-02 R= 8.07D-01
 TightC=F SS=  1.41D+00  RLast= 3.21D-01 DXNew= 5.0454D-01 9.6330D-01
 Trust test= 8.07D-01 RLast= 3.21D-01 DXMaxT set to 5.05D-01
 ITU=  1  0
 Use linear search instead of GDIIS.
     Eigenvalues ---    0.01526   0.01882   0.02317   0.02442   0.02492
     Eigenvalues ---    0.02706   0.15161   0.15594   0.15927   0.15983
     Eigenvalues ---    0.21937   0.22741   0.25821   0.27961   0.30351
     Eigenvalues ---    0.32730   0.34789   0.34896   0.45867   0.50693
     Eigenvalues ---    0.70918
 RFO step:  Lambda=-1.20340355D-02 EMin= 1.52630483D-02
 Quartic linear search produced a step of  0.17439.
 Iteration  1 RMS(Cart)=  0.05940555 RMS(Int)=  0.00734017
 Iteration  2 RMS(Cart)=  0.00573350 RMS(Int)=  0.00479754
 Iteration  3 RMS(Cart)=  0.00002622 RMS(Int)=  0.00479749
 Iteration  4 RMS(Cart)=  0.00000009 RMS(Int)=  0.00479749
 ITry= 1 IFail=0 DXMaxC= 2.52D-01 DCOld= 1.00D+10 DXMaxT= 5.05D-01 DXLimC= 3.00D+00 Rises=F
 Variable       Old X    -DE/DX   Delta X   Delta X   Delta X     New X
                                 (Linear)    (Quad)   (Total)
    R1        2.65178  -0.01243   0.00587  -0.03355  -0.02796   2.62382
    R2        2.80470   0.00824   0.03408   0.00433   0.03824   2.84294
    R3        2.14125  -0.00915  -0.00725  -0.03347  -0.04072   2.10053
    R4        2.07777   0.00198   0.00332   0.00512   0.00844   2.08621
    R5        3.46274   0.00478   0.01066   0.01591   0.02622   3.48896
    R6        2.65864  -0.00529   0.02133  -0.01837   0.00398   2.66262
    R7        2.11470  -0.00696  -0.00378  -0.02406  -0.02784   2.08686
    R8        3.30022   0.01738   0.01214   0.05414   0.06621   3.36643
    R9        2.10325   0.00232   0.00726   0.00477   0.01203   2.11527
    A1        2.01037   0.00125  -0.00335   0.00445  -0.00320   2.00717
    A2        2.09391   0.00074  -0.00028   0.00618   0.00691   2.10082
    A3        2.17639  -0.00215   0.00354  -0.01433  -0.00920   2.16719
    A4        2.35140   0.00747   0.00603   0.05099   0.05881   2.41022
    A5        1.85444   0.00131  -0.00075   0.00401  -0.00037   1.85407
    A6        2.07560  -0.00877  -0.00516  -0.05509  -0.05840   2.01720
    A7        2.23473   0.01228   0.01523   0.05708   0.05823   2.29297
    A8        1.92109  -0.00683  -0.01243  -0.02859  -0.05137   1.86972
    A9        2.11620  -0.00650  -0.00392  -0.06534  -0.07520   2.04101
   A10        1.97134   0.00453   0.00421   0.01981   0.02108   1.99242
   A11        2.15940  -0.00393  -0.00154  -0.03214  -0.03353   2.12587
   A12        2.12958  -0.00129  -0.00250  -0.01198  -0.01741   2.11217
   A13        1.65607  -0.00030   0.01319   0.00265   0.01036   1.66643
    D1       -3.06016  -0.00106  -0.00460  -0.06447  -0.06828  -3.12843
    D2        0.14836  -0.00091  -0.00632  -0.05998  -0.06613   0.08222
    D3        0.00879  -0.00348  -0.00584  -0.11839  -0.12567  -0.11688
    D4       -3.06588  -0.00333  -0.00756  -0.11390  -0.12353   3.09378
    D5       -0.14723  -0.00341  -0.00003  -0.08964  -0.09191  -0.23914
    D6       -3.06416   0.00001  -0.00057   0.02880   0.02364  -3.04052
    D7        3.07091  -0.00101   0.00146  -0.03384  -0.03282   3.03809
    D8        0.15398   0.00241   0.00092   0.08459   0.08273   0.23671
    D9       -0.09471   0.00330   0.00691   0.14746   0.15409   0.05938
   D10        3.10119   0.00276   0.00496   0.14670   0.15090  -3.03109
   D11        3.04565  -0.00312  -0.00397  -0.07338  -0.08350   2.96215
   D12       -0.31624  -0.00688  -0.00332  -0.19257  -0.20047  -0.51671
   D13        0.06452   0.00535   0.00612   0.19736   0.19950   0.26402
   D14        2.98581   0.00159   0.00677   0.07817   0.08253   3.06834
   D15        0.01684  -0.00535  -0.00812  -0.20071  -0.20334  -0.18650
   D16       -2.97703   0.00043  -0.00015   0.03567   0.01844  -2.95859
         Item               Value     Threshold  Converged?
 Maximum Force            0.017375     0.000450     NO 
 RMS     Force            0.005882     0.000300     NO 
 Maximum Displacement     0.251536     0.001800     NO 
 RMS     Displacement     0.060466     0.001200     NO 
 Predicted change in Energy=-6.591424D-03
 Lowest energy point so far.  Saving SCF results.
 GradGradGradGradGradGradGradGradGradGradGradGradGradGradGradGradGradGrad

 Leave Link  103 at Mon Apr  4 15:42:43 2016, MaxMem=    33554432 cpu:         0.0
 (Enter /home/dustin/Applications/g09/g09/l202.exe)
                          Input orientation:                          
 ---------------------------------------------------------------------
 Center     Atomic      Atomic             Coordinates (Angstroms)
 Number     Number       Type             X           Y           Z
 ---------------------------------------------------------------------
      1          6           0        0.916146   -0.742249   -0.036379
      2          6           0       -0.336933   -1.338109    0.014356
      3          6           0       -0.356722    1.346603   -0.033813
      4          6           0        0.914397    0.755301    0.107219
      5          1           0        1.848507    1.360436   -0.011963
      6          1           0       -0.709029    2.375018    0.160503
      7          1           0       -0.766379   -2.353875   -0.036210
      8          1           0        1.835372   -1.367056   -0.049929
      9         16           0       -1.560914    0.041163    0.104987
 ---------------------------------------------------------------------
                    Distance matrix (angstroms):
                    1          2          3          4          5
     1  C    0.000000
     2  C    1.388463   0.000000
     3  C    2.446120   2.685218   0.000000
     4  C    1.504419   2.440659   1.408997   0.000000
     5  H    2.300256   3.472605   2.205381   1.119355   0.000000
     6  H    3.520982   3.734586   1.104318   2.293870   2.756830
     7  H    2.329856   1.103975   3.723085   3.537308   4.542502
     8  H    1.111550   2.173448   3.488479   2.318898   2.727788
     9  S    2.601835   1.846276   1.781437   2.576269   3.657637
                    6          7          8          9
     6  H    0.000000
     7  H    4.733330   0.000000
     8  H    4.530053   2.782644   0.000000
     9  S    2.485090   2.527336   3.679924   0.000000
 Stoichiometry    C4H4S
 Framework group  C1[X(C4H4S)]
 Deg. of freedom    21
 Full point group                 C1      NOp   1
 RotChk:  IX=1 Diff= 6.85D-02
 Largest Abelian subgroup         C1      NOp   1
 Largest concise Abelian subgroup C1      NOp   1
                         Standard orientation:                         
 ---------------------------------------------------------------------
 Center     Atomic      Atomic             Coordinates (Angstroms)
 Number     Number       Type             X           Y           Z
 ---------------------------------------------------------------------
      1          6           0       -1.336901    0.657037   -0.029258
      2          6           0       -0.134114    1.350307   -0.006701
      3          6           0        0.097237   -1.323140   -0.104408
      4          6           0       -1.211570   -0.837647    0.086887
      5          1           0       -2.098052   -1.513585   -0.014171
      6          1           0        0.536226   -2.323018    0.060062
      7          1           0        0.211442    2.397824   -0.052083
      8          1           0       -2.302795    1.206485   -0.002788
      9         16           0        1.197829    0.072060    0.020616
 ---------------------------------------------------------------------
 Rotational constants (GHZ):      7.0278552      5.2928601      3.0281984
 Leave Link  202 at Mon Apr  4 15:42:43 2016, MaxMem=    33554432 cpu:         0.0
 (Enter /home/dustin/Applications/g09/g09/l301.exe)

 Semi-emprical parameters in input format:
 Method=8 CoreType=1 PeptideFC=0.0110530340 RIJScale=0.5291772086
 ****
 H       
 PQN=1 NValence=1 F0ss=0.4620273394 ZetaOverlap=1.1880780000 U=-0.4839766013
 Beta=-0.2268825074 CoreKO=1.0589197790 KON=0,0,0,1.0520352731 KON=1,0,1,1.0589197790
 KON=0,1,1,0.9934154525 KON=2,1,1,1.0589197790 EISol=-0.4188110042 EHeat=0.0830298228
 Alpha=1.5252601686
 GCore=0.0087703364,1.4001425905,2.2676713595
 GCore=0.0003534810,1.3583935316,3.4015070392
 GCore=-0.0012733648,0.5600570362,3.9684248791
 ****
 C       
 PQN=2,2 NValence=4 F0ss=0.4494442496 F0sp=0.4222769358 F0pp=0.3818176991 F2pp=0.1898715146
 G1sp=0.2615909723
 ZetaOverlap=1.8086650000,1.6665793593
 U=-2.0757031050,-1.4459415072
 Beta=-0.5775444233,-0.2836784428 DDN=0,1,0.8236736000 DDN=1,1,0.7066213442
 CoreKO=1.0803905242 KON=0,0,0,1.1124284736 KON=1,0,1,0.8205706031 KON=0,1,1,1.1124284736
 KON=2,1,1,0.8497601748 EISol=-4.4398989268 EHeat=0.2723305520 Alpha=1.4014062429
 DipHyp=1.6472524267
 GCore=0.0007550116,1.3594359741,3.0235618126
 GCore=0.0030833670,1.4203244271,3.4959933458
 GCore=-0.0013097276,1.4001425905,3.8739385724
 GCore=-0.0000893955,1.4001425905,4.6591966750
 ****
 S       
 PQN=3,3 NValence=6 F0ss=0.4052867719 F0sp=0.3183640731 F0pp=0.3028129500 F2pp=0.3456917167
 G1sp=0.2791629797
 ZetaOverlap=2.3665150000,1.7127111863,0.9721272239
 U=-2.0834683120,-1.8703223752
 Beta=-0.1440781557,-0.2982406555 DDN=0,1,0.8958649594 DDN=1,1,1.0036329000
 CoreKO=1.1543033468 KON=0,0,0,1.1785377074 KON=1,0,1,0.8366289938 KON=0,1,1,1.1404499108
 KON=2,1,1,0.7593850968 EISol=-7.0460287497 EHeat=0.1058151363 Alpha=1.3249601549
 DipHyp=1.7916268390
 GCore=-0.0353616377,1.2863644833,1.4563457902
 GCore=-0.0008238398,1.6520779463,2.8408498620
 GCore=0.0008348218,3.8513530144,3.3994119947
 ****
 
 Standard basis: VSTO-6G (5D, 7F)
 Ernie: Thresh=  0.10000D-02 Tol=  0.10000D-05 Strict=F.
  NNHCO=     0 NNPyr=     0 NCTC=     0               EPep=         0.000000000
    EC=        62.235918297  ECS=         1.425443627   EG=         0.154256531
   EHC=         0.000000000  EAt=       -26.480868474  AtH=         1.527256636
 EPDDG=         0.000000000  ECC=        63.815618454 EAtT=        28.008125109
 There are    24 symmetry adapted cartesian basis functions of A   symmetry.
 There are    24 symmetry adapted basis functions of A   symmetry.
    24 basis functions,   144 primitive gaussians,    24 cartesian basis functions
    13 alpha electrons       13 beta electrons
       nuclear repulsion energy        91.8237435637 Hartrees.
 IExCor=    0 DFT=F Ex=HF Corr=None ExCW=0 ScaHFX=  1.000000
 ScaDFX=  1.000000  1.000000  1.000000  1.000000 ScalE2=  1.000000  1.000000
 IRadAn=      0 IRanWt=     -1 IRanGd=            0 ICorTp=0 IEmpDi=  4
 Integral buffers will be    131072 words long.
 Regular integral format.
 Two-electron integral symmetry is turned off.
 Leave Link  301 at Mon Apr  4 15:42:43 2016, MaxMem=    33554432 cpu:         0.0
 (Enter /home/dustin/Applications/g09/g09/l302.exe)
 Do NDO integrals.
 NPDir=0 NMtPBC=     1 NCelOv=     1 NCel=       1 NClECP=     1 NCelD=      1
         NCelK=      1 NCelE2=     1 NClLst=     1 CellRange=     0.0.
 One-electron integrals computed using PRISM.
 NBasis=    24 RedAO= F EigKep=  0.00D+00  NBF=    24
 NBsUse=    24 1.00D-04 EigRej=  0.00D+00 NBFU=    24
 Leave Link  302 at Mon Apr  4 15:42:43 2016, MaxMem=    33554432 cpu:         0.0
 (Enter /home/dustin/Applications/g09/g09/l303.exe)
 DipDrv:  MaxL=1.
 Leave Link  303 at Mon Apr  4 15:42:43 2016, MaxMem=    33554432 cpu:         0.0
 (Enter /home/dustin/Applications/g09/g09/l401.exe)
 Initial guess from the checkpoint file:  "best.chk"
 B after Tr=     0.000000    0.000000    0.000000
         Rot=    0.999947    0.000217   -0.000238   -0.010251 Ang=   1.18 deg.
 Guess basis will be translated and rotated to current coordinates.
 JPrj=0 DoOrth=T DoCkMO=T.
 Leave Link  401 at Mon Apr  4 15:42:43 2016, MaxMem=    33554432 cpu:         0.0
 (Enter /home/dustin/Applications/g09/g09/l502.exe)
 Closed shell SCF:
 Using DIIS extrapolation, IDIIS=  1040.
 Overlap will be assumed to be unity.
 Two-electron integral symmetry not used.
 Keep J ints in memory in canonical form, NReq=888082.
 IVT=       79475 IEndB=       79475 NGot=    33554432 MDV=    33473473
 LenX=    33473473 LenY=    33472456
 Requested convergence on RMS density matrix=1.00D-08 within 128 cycles.
 Requested convergence on MAX density matrix=1.00D-06.
 Requested convergence on             energy=1.00D-06.
 No special actions if energy rises.
 FoFCou: FMM=F IPFlag=           0 FMFlag=           0 FMFlg1=           0
         NFxFlg=           0 DoJE=F BraDBF=F KetDBF=F FulRan=T
         wScrn=  0.000000 ICntrl=     600 IOpCl=  2 I1Cent=           0 NGrid=           0
         NMat0=    1 NMatS0=     54 NMatT0=    0 NMatD0=    1 NMtDS0=    0 NMtDT0=    0
 Symmetry not used in FoFCou.

 Cycle   1  Pass 1  IDiag  1:
 E= -1.29799023573897    
 DIIS: error= 1.18D-02 at cycle   1 NSaved=   1.
 NSaved= 1 IEnMin= 1 EnMin= -1.29799023573897     IErMin= 1 ErrMin= 1.18D-02
 ErrMax= 1.18D-02  0.00D+00 EMaxC= 1.00D-01 BMatC= 3.02D-03 BMatP= 3.02D-03
 IDIUse=3 WtCom= 8.82D-01 WtEn= 1.18D-01
 Coeff-Com:  0.100D+01
 Coeff-En:   0.100D+01
 Coeff:      0.100D+01
 GapD=    2.000 DampG=2.000 DampE=0.500 DampFc=1.0000 IDamp=-1.
 RMSDP=5.01D-03 MaxDP=3.18D-02              OVMax= 0.00D+00

 Cycle   2  Pass 1  IDiag  3:
 E= -1.31040618010846     Delta-E=       -0.012415944369 Rises=F Damp=F
 DIIS: error= 4.75D-03 at cycle   2 NSaved=   2.
 NSaved= 2 IEnMin= 2 EnMin= -1.31040618010846     IErMin= 2 ErrMin= 4.75D-03
 ErrMax= 4.75D-03  0.00D+00 EMaxC= 1.00D-01 BMatC= 5.67D-04 BMatP= 3.02D-03
 IDIUse=3 WtCom= 9.53D-01 WtEn= 4.75D-02
 Coeff-Com: -0.506D+00 0.151D+01
 Coeff-En:   0.000D+00 0.100D+01
 Coeff:     -0.482D+00 0.148D+01
 Gap=     0.307 Goal=   None    Shift=    0.000
 RMSDP=4.20D-03 MaxDP=2.47D-02 DE=-1.24D-02 OVMax= 2.61D-02

 Cycle   3  Pass 1  IDiag  3:
 E= -1.31490396713984     Delta-E=       -0.004497787031 Rises=F Damp=F
 DIIS: error= 1.54D-03 at cycle   3 NSaved=   3.
 NSaved= 3 IEnMin= 3 EnMin= -1.31490396713984     IErMin= 3 ErrMin= 1.54D-03
 ErrMax= 1.54D-03  0.00D+00 EMaxC= 1.00D-01 BMatC= 9.04D-05 BMatP= 5.67D-04
 IDIUse=3 WtCom= 9.85D-01 WtEn= 1.54D-02
 Coeff-Com:  0.296D+00-0.118D+01 0.188D+01
 Coeff-En:   0.000D+00 0.000D+00 0.100D+01
 Coeff:      0.292D+00-0.116D+01 0.187D+01
 Gap=     0.307 Goal=   None    Shift=    0.000
 RMSDP=2.97D-03 MaxDP=1.36D-02 DE=-4.50D-03 OVMax= 2.65D-02

 Cycle   4  Pass 1  IDiag  3:
 E= -1.31617134318775     Delta-E=       -0.001267376048 Rises=F Damp=F
 DIIS: error= 6.18D-04 at cycle   4 NSaved=   4.
 NSaved= 4 IEnMin= 4 EnMin= -1.31617134318775     IErMin= 4 ErrMin= 6.18D-04
 ErrMax= 6.18D-04  0.00D+00 EMaxC= 1.00D-01 BMatC= 1.73D-05 BMatP= 9.04D-05
 IDIUse=3 WtCom= 9.94D-01 WtEn= 6.18D-03
 Coeff-Com: -0.235D+00 0.980D+00-0.184D+01 0.209D+01
 Coeff-En:   0.000D+00 0.000D+00 0.000D+00 0.100D+01
 Coeff:     -0.234D+00 0.974D+00-0.183D+01 0.209D+01
 Gap=     0.308 Goal=   None    Shift=    0.000
 RMSDP=1.75D-03 MaxDP=7.80D-03 DE=-1.27D-03 OVMax= 1.89D-02

 Cycle   5  Pass 1  IDiag  3:
 E= -1.31651195487304     Delta-E=       -0.000340611685 Rises=F Damp=F
 DIIS: error= 2.77D-04 at cycle   5 NSaved=   5.
 NSaved= 5 IEnMin= 5 EnMin= -1.31651195487304     IErMin= 5 ErrMin= 2.77D-04
 ErrMax= 2.77D-04  0.00D+00 EMaxC= 1.00D-01 BMatC= 3.76D-06 BMatP= 1.73D-05
 IDIUse=3 WtCom= 9.97D-01 WtEn= 2.77D-03
 Coeff-Com: -0.396D-01 0.144D+00-0.161D+00-0.550D+00 0.161D+01
 Coeff-En:   0.000D+00 0.000D+00 0.000D+00 0.000D+00 0.100D+01
 Coeff:     -0.395D-01 0.144D+00-0.161D+00-0.548D+00 0.160D+01
 Gap=     0.308 Goal=   None    Shift=    0.000
 RMSDP=1.11D-03 MaxDP=5.31D-03 DE=-3.41D-04 OVMax= 1.26D-02

 Cycle   6  Pass 1  IDiag  3:
 E= -1.31659814718751     Delta-E=       -0.000086192314 Rises=F Damp=F
 DIIS: error= 7.61D-05 at cycle   6 NSaved=   6.
 NSaved= 6 IEnMin= 6 EnMin= -1.31659814718751     IErMin= 6 ErrMin= 7.61D-05
 ErrMax= 7.61D-05  0.00D+00 EMaxC= 1.00D-01 BMatC= 4.82D-07 BMatP= 3.76D-06
 IDIUse=1 WtCom= 1.00D+00 WtEn= 0.00D+00
[...]
     Eigenvalues ---    0.12114   0.16220   0.21585   0.23076   0.29380
     Eigenvalues ---    0.31717   0.34783   0.34920   0.42135   0.43496
     Eigenvalues ---    0.63687
 En-DIIS/RFO-DIIS IScMMF=        0 using points:    17   16   15   14   13
 RFO step:  Lambda=-5.06527749D-08.
 NNeg= 0 NP= 5 Switch=  2.50D-03 Rises=F DC=  7.66D-05 SmlDif=  1.00D-05
 RMS Error=  0.7590837030D-04 NUsed= 5 EDIIS=F
 DidBck=F Rises=F RFO-DIIS coefs:    1.64894   -0.85433    0.21609    0.00720   -0.01789
 Iteration  1 RMS(Cart)=  0.00039340 RMS(Int)=  0.00000533
 Iteration  2 RMS(Cart)=  0.00000026 RMS(Int)=  0.00000533
 ITry= 1 IFail=0 DXMaxC= 1.15D-03 DCOld= 1.00D+10 DXMaxT= 2.06D+00 DXLimC= 3.00D+00 Rises=F
 Variable       Old X    -DE/DX   Delta X   Delta X   Delta X     New X
                                 (Linear)    (Quad)   (Total)
    R1        2.78699   0.00003  -0.00016   0.00002  -0.00013   2.78685
    R2        2.90097   0.00003   0.00021   0.00003   0.00023   2.90121
    R3        2.14857   0.00003   0.00001   0.00008   0.00010   2.14867
    R4        2.11789  -0.00002  -0.00010  -0.00003  -0.00013   2.11776
    R5        3.55845  -0.00004  -0.00092  -0.00005  -0.00096   3.55748
    R6        2.78653   0.00004   0.00035   0.00001   0.00036   2.78689
    R7        2.11765   0.00001   0.00015  -0.00008   0.00007   2.11773
    R8        3.55745  -0.00003   0.00016  -0.00001   0.00014   3.55759
    R9        2.14861   0.00001   0.00007   0.00000   0.00006   2.14868
    A1        1.98430   0.00000  -0.00010  -0.00006  -0.00015   1.98415
    A2        1.98521  -0.00002  -0.00016  -0.00019  -0.00035   1.98486
    A3        1.94300   0.00002   0.00008   0.00020   0.00028   1.94328
    A4        2.19603   0.00003   0.00073   0.00019   0.00090   2.19693
    A5        1.78944   0.00000   0.00023   0.00006   0.00029   1.78973
    A6        1.88395  -0.00002  -0.00012   0.00022   0.00009   1.88404
    A7        2.19726  -0.00001  -0.00018  -0.00015  -0.00034   2.19692
    A8        1.78975   0.00001  -0.00012   0.00002  -0.00011   1.78964
    A9        1.88426   0.00000   0.00005  -0.00011  -0.00006   1.88420
   A10        1.98445  -0.00003  -0.00022  -0.00003  -0.00026   1.98419
   A11        1.94398  -0.00001  -0.00062   0.00000  -0.00062   1.94336
   A12        1.98476   0.00001   0.00015  -0.00017  -0.00002   1.98474
   A13        1.71360   0.00002   0.00010  -0.00003   0.00007   1.71366
    D1        2.59010   0.00001   0.00073   0.00050   0.00124   2.59134
    D2        0.43743   0.00001   0.00018  -0.00002   0.00016   0.43758
    D3       -1.44473   0.00001   0.00060   0.00057   0.00118  -1.44355
    D4        2.68578   0.00002   0.00005   0.00005   0.00009   2.68588
    D5       -0.62897  -0.00001  -0.00015  -0.00007  -0.00023  -0.62919
    D6       -2.89900   0.00001   0.00040   0.00019   0.00059  -2.89842
    D7       -2.89862   0.00001   0.00009   0.00006   0.00015  -2.89847
    D8        1.11453   0.00003   0.00064   0.00032   0.00096   1.11549
    D9       -0.15720   0.00000  -0.00005   0.00008   0.00004  -0.15716
   D10       -2.50642  -0.00002  -0.00098  -0.00033  -0.00131  -2.50773
   D11        2.59183   0.00002  -0.00009  -0.00010  -0.00019   2.59164
   D12       -1.44188  -0.00002  -0.00104  -0.00028  -0.00132  -1.44321
   D13        0.43749   0.00001   0.00012   0.00015   0.00027   0.43775
   D14        2.68695  -0.00002  -0.00083  -0.00003  -0.00087   2.68609
   D15       -0.15715  -0.00001  -0.00010  -0.00014  -0.00023  -0.15738
   D16       -2.50828   0.00000   0.00020   0.00010   0.00030  -2.50798
         Item               Value     Threshold  Converged?
 Maximum Force            0.000039     0.000450     YES
 RMS     Force            0.000020     0.000300     YES
 Maximum Displacement     0.001154     0.001800     YES
 RMS     Displacement     0.000393     0.001200     YES
 Predicted change in Energy=-1.013459D-07
 Optimization completed.
    -- Stationary point found.
                           ----------------------------
                           !   Optimized Parameters   !
                           ! (Angstroms and Degrees)  !
 --------------------------                            --------------------------
 ! Name  Definition              Value          Derivative Info.                !
 --------------------------------------------------------------------------------
 ! R1    R(1,2)                  1.4748         -DE/DX =    0.0                 !
 ! R2    R(1,4)                  1.5351         -DE/DX =    0.0                 !
 ! R3    R(1,8)                  1.137          -DE/DX =    0.0                 !
 ! R4    R(2,7)                  1.1207         -DE/DX =    0.0                 !
 ! R5    R(2,9)                  1.883          -DE/DX =    0.0                 !
 ! R6    R(3,4)                  1.4746         -DE/DX =    0.0                 !
 ! R7    R(3,6)                  1.1206         -DE/DX =    0.0                 !
 ! R8    R(3,9)                  1.8825         -DE/DX =    0.0                 !
 ! R9    R(4,5)                  1.137          -DE/DX =    0.0                 !
 ! A1    A(2,1,4)              113.692          -DE/DX =    0.0                 !
 ! A2    A(2,1,8)              113.7441         -DE/DX =    0.0                 !
 ! A3    A(4,1,8)              111.3258         -DE/DX =    0.0                 !
 ! A4    A(1,2,7)              125.8232         -DE/DX =    0.0                 !
 ! A5    A(1,2,9)              102.5273         -DE/DX =    0.0                 !
 ! A6    A(7,2,9)              107.9426         -DE/DX =    0.0                 !
 ! A7    A(4,3,6)              125.8936         -DE/DX =    0.0                 !
 ! A8    A(4,3,9)              102.5451         -DE/DX =    0.0                 !
 ! A9    A(6,3,9)              107.9604         -DE/DX =    0.0                 !
 ! A10   A(1,4,3)              113.7004         -DE/DX =    0.0                 !
 ! A11   A(1,4,5)              111.3816         -DE/DX =    0.0                 !
 ! A12   A(3,4,5)              113.7186         -DE/DX =    0.0                 !
 ! A13   A(2,9,3)               98.1818         -DE/DX =    0.0                 !
 ! D1    D(4,1,2,7)            148.402          -DE/DX =    0.0                 !
 ! D2    D(4,1,2,9)             25.0628         -DE/DX =    0.0                 !
 ! D3    D(8,1,2,7)            -82.7768         -DE/DX =    0.0                 !
 ! D4    D(8,1,2,9)            153.884          -DE/DX =    0.0                 !
 ! D5    D(2,1,4,3)            -36.0372         -DE/DX =    0.0                 !
 ! D6    D(2,1,4,5)           -166.1007         -DE/DX =    0.0                 !
 ! D7    D(8,1,4,3)           -166.0787         -DE/DX =    0.0                 !
 ! D8    D(8,1,4,5)             63.8578         -DE/DX =    0.0                 !
 ! D9    D(1,2,9,3)             -9.0066         -DE/DX =    0.0                 !
 ! D10   D(7,2,9,3)           -143.6072         -DE/DX =    0.0                 !
 ! D11   D(6,3,4,1)            148.5011         -DE/DX =    0.0                 !
 ! D12   D(6,3,4,5)            -82.6138         -DE/DX =    0.0                 !
 ! D13   D(9,3,4,1)             25.0661         -DE/DX =    0.0                 !
 ! D14   D(9,3,4,5)            153.9512         -DE/DX =    0.0                 !
 ! D15   D(4,3,9,2)             -9.0037         -DE/DX =    0.0                 !
 ! D16   D(6,3,9,2)           -143.7139         -DE/DX =    0.0                 !
 --------------------------------------------------------------------------------
 Lowest energy point so far.  Saving SCF results.
 GradGradGradGradGradGradGradGradGradGradGradGradGradGradGradGradGradGrad

 Largest change from initial coordinates is atom    7       0.039 Angstoms.
 Leave Link  103 at Mon Apr  4 15:42:45 2016, MaxMem=    33554432 cpu:         0.0
 (Enter /home/dustin/Applications/g09/g09/l202.exe)
                          Input orientation:                          
 ---------------------------------------------------------------------
 Center     Atomic      Atomic             Coordinates (Angstroms)
 Number     Number       Type             X           Y           Z
 ---------------------------------------------------------------------
      1          6           0        0.934231   -0.752072   -0.129999
      2          6           0       -0.345922   -1.400657    0.210013
      3          6           0       -0.336109    1.424386   -0.133143
      4          6           0        0.951079    0.758988    0.140252
      5          1           0        1.840349    1.259825   -0.360871
      6          1           0       -0.739415    2.321068    0.404520
      7          1           0       -0.788017   -2.290985   -0.307603
      8          1           0        1.841786   -1.263691    0.325299
      9         16           0       -1.573536    0.020370    0.070304
 ---------------------------------------------------------------------
                    Distance matrix (angstroms):
                    1          2          3          4          5
     1  C    0.000000
     2  C    1.474809   0.000000
     3  C    2.520069   2.845825   0.000000
     4  C    1.535130   2.520147   1.474569   0.000000
     5  H    2.218576   3.490537   2.194518   1.136997   0.000000
     6  H    3.539915   3.747520   1.120614   2.316830   2.892619
     7  H    2.316448   1.120740   3.746817   3.539401   4.418076
     8  H    1.136972   2.195021   3.489865   2.217844   2.615142
     9  S    2.631670   1.883049   1.882519   2.631374   3.657427
                    6          7          8          9
     6  H    0.000000
     7  H    4.666959   0.000000
     8  H    4.418074   2.893399   0.000000
     9  S    2.469953   2.470266   3.657631   0.000000
 Stoichiometry    C4H4S
 Framework group  C1[X(C4H4S)]
 Deg. of freedom    21
 Full point group                 C1      NOp   1
 RotChk:  IX=1 Diff= 5.95D-16
 Largest Abelian subgroup         C1      NOp   1
 Largest concise Abelian subgroup C1      NOp   1
                         Standard orientation:                         
 ---------------------------------------------------------------------
 Center     Atomic      Atomic             Coordinates (Angstroms)
 Number     Number       Type             X           Y           Z
 ---------------------------------------------------------------------
      1          6           0       -1.302724    0.752024   -0.150910
      2          6           0       -0.018871    1.415978    0.142261
      3          6           0       -0.017393   -1.415600   -0.142141
      4          6           0       -1.301800   -0.753160    0.150819
      5          1           0       -2.200128   -1.270178   -0.316581
      6          1           0        0.406061   -2.298214    0.403254
      7          1           0        0.403336    2.298234   -0.404935
      8          1           0       -2.201835    1.267012    0.317161
      9         16           0        1.214830    0.000481    0.000058
 ---------------------------------------------------------------------
 Rotational constants (GHZ):      6.5502824      5.0848849      2.9137608
 Leave Link  202 at Mon Apr  4 15:42:45 2016, MaxMem=    33554432 cpu:         0.0
 (Enter /home/dustin/Applications/g09/g09/l601.exe)
 Copying SCF densities to generalized density rwf, IOpCl= 0 IROHF=0.

 **********************************************************************

            Population analysis using the SCF density.

 **********************************************************************

 Orbital symmetries:
       Occupied  (A) (A) (A) (A) (A) (A) (A) (A) (A) (A) (A) (A)
                 (A)
       Virtual   (A) (A) (A) (A) (A) (A) (A) (A) (A) (A) (A)
 The electronic state is 1-A.
 Alpha  occ. eigenvalues --   -1.49081  -1.26190  -1.04284  -0.88151  -0.70206
 Alpha  occ. eigenvalues --   -0.61567  -0.56963  -0.55301  -0.54248  -0.53233
 Alpha  occ. eigenvalues --   -0.47416  -0.44670  -0.41212
 Alpha virt. eigenvalues --   -0.09414  -0.05536  -0.04240  -0.03801  -0.00680
 Alpha virt. eigenvalues --    0.03099   0.06350   0.07043   0.09496   0.09770
 Alpha virt. eigenvalues --    0.11435
          Condensed to atoms (all electrons):
               1          2          3          4          5          6
     1  C    3.897210   0.000000   0.000000   0.000000   0.000000   0.000000
     2  C    0.000000   3.518959   0.000000   0.000000   0.000000   0.000000
     3  C    0.000000   0.000000   3.519249   0.000000   0.000000   0.000000
     4  C    0.000000   0.000000   0.000000   3.897937   0.000000   0.000000
     5  H    0.000000   0.000000   0.000000   0.000000   1.073609   0.000000
     6  H    0.000000   0.000000   0.000000   0.000000   0.000000   1.026754
     7  H    0.000000   0.000000   0.000000   0.000000   0.000000   0.000000
     8  H    0.000000   0.000000   0.000000   0.000000   0.000000   0.000000
     9  S    0.000000   0.000000   0.000000   0.000000   0.000000   0.000000
               7          8          9
     1  C    0.000000   0.000000   0.000000
     2  C    0.000000   0.000000   0.000000
     3  C    0.000000   0.000000   0.000000
     4  C    0.000000   0.000000   0.000000
     5  H    0.000000   0.000000   0.000000
     6  H    0.000000   0.000000   0.000000
     7  H    1.027077   0.000000   0.000000
     8  H    0.000000   1.073721   0.000000
     9  S    0.000000   0.000000   6.965484
 Mulliken charges:
               1
     1  C    0.102790
     2  C    0.481041
     3  C    0.480751
     4  C    0.102063
     5  H   -0.073609
     6  H   -0.026754
     7  H   -0.027077
     8  H   -0.073721
     9  S   -0.965484
 Sum of Mulliken charges =   0.00000
 Mulliken charges with hydrogens summed into heavy atoms:
               1
     1  C    0.029069
     2  C    0.453964
     3  C    0.453997
     4  C    0.028455
     9  S   -0.965484
 Charge=              0.0000 electrons
 Dipole moment (field-independent basis, Debye):
    X=             -5.8774    Y=             -0.0034    Z=             -0.0015  Tot=              5.8774
 N-N= 9.058486580166D+01 E-N=-1.489874040137D+02  KE=-1.583788527679D+01
 Leave Link  601 at Mon Apr  4 15:42:45 2016, MaxMem=    33554432 cpu:         0.0
 (Enter /home/dustin/Applications/g09/g09/l9999.exe)
 1\1\GINC-DUSTIN-DESKTOP\FOpt\RAM1\ZDO\C4H4S1\DUSTIN\04-Apr-2016\0\\#P 
 AM1(Input,Print) opt\\best\\0,1\C,0.9342314205,-0.7520723573,-0.129999
 473\C,-0.3459220571,-1.4006567136,0.2100128445\C,-0.3361092581,1.42438
 63304,-0.1331432719\C,0.9510789025,0.7589878948,0.1402522575\H,1.84034
 86479,1.2598250609,-0.3608711752\H,-0.7394153295,2.321067878,0.4045204
 824\H,-0.788016806,-2.2909846785,-0.3076031482\H,1.8417858367,-1.26369
 12911,0.3252989786\S,-1.5735363568,0.0203698764,0.0703035053\\Version=
 ES64L-G09RevD.01\State=1-A\HF=-1.3530066\RMSD=6.134e-09\RMSF=3.594e-05
 \Dipole=2.3115069,-0.0151791,-0.0603698\PG=C01 [X(C4H4S1)]\\@



 WE LOSE BECAUSE WE WIN

 GAMBLERS,

 RECOLLECTING WHICH,

 TOSS THEIR DICE AGAIN....


                          EMILY DICKINSON  BOLTS OF MELODY NO. 533
 Job cpu time:       0 days  0 hours  0 minutes  2.7 seconds.
 File lengths (MBytes):  RWF=      5 Int=      0 D2E=      0 Chk=      2 Scr=      1
 Normal termination of Gaussian 09 at Mon Apr  4 15:42:45 2016.
 Initial command:
 /home/dustin/Applications/g09/g09/l1.exe "/tmp/Gau-24765.inp" -scrdir="/tmp/"
 Entering Link 1 = /home/dustin/Applications/g09/g09/l1.exe PID=     24777.
  
 Copyright (c) 1988,1990,1992,1993,1995,1998,2003,2009,2013,
            Gaussian, Inc.  All Rights Reserved.
  
 This is part of the Gaussian(R) 09 program.  It is based on
 the Gaussian(R) 03 system (copyright 2003, Gaussian, Inc.),
 the Gaussian(R) 98 system (copyright 1998, Gaussian, Inc.),
 the Gaussian(R) 94 system (copyright 1995, Gaussian, Inc.),
 the Gaussian 92(TM) system (copyright 1992, Gaussian, Inc.),
 the Gaussian 90(TM) system (copyright 1990, Gaussian, Inc.),
 the Gaussian 88(TM) system (copyright 1988, Gaussian, Inc.),
 the Gaussian 86(TM) system (copyright 1986, Carnegie Mellon
 University), and the Gaussian 82(TM) system (copyright 1983,
 Carnegie Mellon University). Gaussian is a federally registered
 trademark of Gaussian, Inc.
  
 This software contains proprietary and confidential information,
 including trade secrets, belonging to Gaussian, Inc.
  
 This software is provided under written license and may be
 used, copied, transmitted, or stored only in accord with that
 written license.
  
 The following legend is applicable only to US Government
 contracts under FAR:
  
                    RESTRICTED RIGHTS LEGEND
  
 Use, reproduction and disclosure by the US Government is
 subject to restrictions as set forth in subparagraphs (a)
 and (c) of the Commercial Computer Software - Restricted
 Rights clause in FAR 52.227-19.
  
 Gaussian, Inc.
 340 Quinnipiac St., Bldg. 40, Wallingford CT 06492
  
  
 ---------------------------------------------------------------
 Warning -- This program may not be used in any manner that
 competes with the business of Gaussian, Inc. or will provide
 assistance to any competitor of Gaussian, Inc.  The licensee
 of this program is prohibited from giving any competitor of
 Gaussian, Inc. access to this program.  By using this program,
 the user acknowledges that Gaussian, Inc. is engaged in the
 business of creating and licensing software in the field of
 computational chemistry and represents and warrants to the
 licensee that it is not a competitor of Gaussian, Inc. and that
 it will not use this program in any manner prohibited above.
 ---------------------------------------------------------------
  

 Cite this work as:
 Gaussian 09, Revision D.01,
 M. J. Frisch, G. W. Trucks, H. B. Schlegel, G. E. Scuseria, 
 M. A. Robb, J. R. Cheeseman, G. Scalmani, V. Barone, B. Mennucci, 
 G. A. Petersson, H. Nakatsuji, M. Caricato, X. Li, H. P. Hratchian, 
 A. F. Izmaylov, J. Bloino, G. Zheng, J. L. Sonnenberg, M. Hada, 
 M. Ehara, K. Toyota, R. Fukuda, J. Hasegawa, M. Ishida, T. Nakajima, 
 Y. Honda, O. Kitao, H. Nakai, T. Vreven, J. A. Montgomery, Jr., 
 J. E. Peralta, F. Ogliaro, M. Bearpark, J. J. Heyd, E. Brothers, 
 K. N. Kudin, V. N. Staroverov, T. Keith, R. Kobayashi, J. Normand, 
 K. Raghavachari, A. Rendell, J. C. Burant, S. S. Iyengar, J. Tomasi, 
 M. Cossi, N. Rega, J. M. Millam, M. Klene, J. E. Knox, J. B. Cross, 
 V. Bakken, C. Adamo, J. Jaramillo, R. Gomperts, R. E. Stratmann, 
 O. Yazyev, A. J. Austin, R. Cammi, C. Pomelli, J. W. Ochterski, 
 R. L. Martin, K. Morokuma, V. G. Zakrzewski, G. A. Voth, 
 P. Salvador, J. J. Dannenberg, S. Dapprich, A. D. Daniels, 
 O. Farkas, J. B. Foresman, J. V. Ortiz, J. Cioslowski, 
 and D. J. Fox, Gaussian, Inc., Wallingford CT, 2013.
 
 ******************************************
 Gaussian 09:  ES64L-G09RevD.01 24-Apr-2013
                 4-Apr-2016 
 ******************************************
 %chk=best
 ----------------------------------------------------------------------
 #P AM1(Input,Print) CIS(Singlets,NStates=0) pop(full) freq geom=Checkp
 oint
 ----------------------------------------------------------------------
 1/10=4,29=2,30=1,38=1/1,3;
 2/12=2,40=1/2;
 3/5=2,14=-4,16=1,25=1,41=700000,71=2,135=100,136=1,140=1/1,2,8,3;
 4/35=1/1;
 5/5=2,35=1,38=5,98=1/2;
 8/6=1,10=90/1;
 9/15=3,42=1,48=1,49=10/14;
 10/5=4,20=4/2;
 11/6=1,8=1,12=-1,16=1,42=3/1,2,10;
 10/6=2,21=1/2,14;
 6/7=3,18=1/1;
 7/8=1,10=1,12=6,13=5,25=1,44=2/1,2,3,16;
 1/10=4,30=1/3;
 99//99;
 Leave Link    1 at Mon Apr  4 15:42:45 2016, MaxMem=           0 cpu:         0.0
 (Enter /home/dustin/Applications/g09/g09/l101.exe)
 -----
 best1
 -----
 Atom specifications unexpectedly found in input stream.
 Error termination via Lnk1e in /home/dustin/Applications/g09/g09/l101.exe at Mon Apr  4 15:42:45 2016.
 Job cpu time:       0 days  0 hours  0 minutes  0.0 seconds.
 File lengths (MBytes):  RWF=      5 Int=      0 D2E=      0 Chk=      2 Scr=      1
