 Entering Gaussian System, Link 0=g09
 Input=best_es.com
 Output=best_es.log
 Initial command:
 /home/dustin/Applications/g09/g09/l1.exe "/tmp/Gau-10621.inp" -scrdir="/tmp/"
 Entering Link 1 = /home/dustin/Applications/g09/g09/l1.exe PID=     10623.
  
 Copyright (c) 1988,1990,1992,1993,1995,1998,2003,2009,2013,
            Gaussian, Inc.  All Rights Reserved.
  
 This is part of the Gaussian(R) 09 program.  It is based on
 the Gaussian(R) 03 system (copyright 2003, Gaussian, Inc.),
 the Gaussian(R) 98 system (copyright 1998, Gaussian, Inc.),
 the Gaussian(R) 94 system (copyright 1995, Gaussian, Inc.),
 the Gaussian 92(TM) system (copyright 1992, Gaussian, Inc.),
 the Gaussian 90(TM) system (copyright 1990, Gaussian, Inc.),
 the Gaussian 88(TM) system (copyright 1988, Gaussian, Inc.),
 the Gaussian 86(TM) system (copyright 1986, Carnegie Mellon
 University), and the Gaussian 82(TM) system (copyright 1983,
 Carnegie Mellon University). Gaussian is a federally registered
 trademark of Gaussian, Inc.
  
 This software contains proprietary and confidential information,
 including trade secrets, belonging to Gaussian, Inc.
  
 This software is provided under written license and may be
 used, copied, transmitted, or stored only in accord with that
 written license.
  
 The following legend is applicable only to US Government
 contracts under FAR:
  
                    RESTRICTED RIGHTS LEGEND
  
 Use, reproduction and disclosure by the US Government is
 subject to restrictions as set forth in subparagraphs (a)
 and (c) of the Commercial Computer Software - Restricted
 Rights clause in FAR 52.227-19.
  
 Gaussian, Inc.
 340 Quinnipiac St., Bldg. 40, Wallingford CT 06492
  
  
 ---------------------------------------------------------------
 Warning -- This program may not be used in any manner that
 competes with the business of Gaussian, Inc. or will provide
 assistance to any competitor of Gaussian, Inc.  The licensee
 of this program is prohibited from giving any competitor of
 Gaussian, Inc. access to this program.  By using this program,
 the user acknowledges that Gaussian, Inc. is engaged in the
 business of creating and licensing software in the field of
 computational chemistry and represents and warrants to the
 licensee that it is not a competitor of Gaussian, Inc. and that
 it will not use this program in any manner prohibited above.
 ---------------------------------------------------------------
  

 Cite this work as:
 Gaussian 09, Revision D.01,
 M. J. Frisch, G. W. Trucks, H. B. Schlegel, G. E. Scuseria, 
 M. A. Robb, J. R. Cheeseman, G. Scalmani, V. Barone, B. Mennucci, 
 G. A. Petersson, H. Nakatsuji, M. Caricato, X. Li, H. P. Hratchian, 
 A. F. Izmaylov, J. Bloino, G. Zheng, J. L. Sonnenberg, M. Hada, 
 M. Ehara, K. Toyota, R. Fukuda, J. Hasegawa, M. Ishida, T. Nakajima, 
 Y. Honda, O. Kitao, H. Nakai, T. Vreven, J. A. Montgomery, Jr., 
 J. E. Peralta, F. Ogliaro, M. Bearpark, J. J. Heyd, E. Brothers, 
 K. N. Kudin, V. N. Staroverov, T. Keith, R. Kobayashi, J. Normand, 
 K. Raghavachari, A. Rendell, J. C. Burant, S. S. Iyengar, J. Tomasi, 
 M. Cossi, N. Rega, J. M. Millam, M. Klene, J. E. Knox, J. B. Cross, 
 V. Bakken, C. Adamo, J. Jaramillo, R. Gomperts, R. E. Stratmann, 
 O. Yazyev, A. J. Austin, R. Cammi, C. Pomelli, J. W. Ochterski, 
 R. L. Martin, K. Morokuma, V. G. Zakrzewski, G. A. Voth, 
 P. Salvador, J. J. Dannenberg, S. Dapprich, A. D. Daniels, 
 O. Farkas, J. B. Foresman, J. V. Ortiz, J. Cioslowski, 
 and D. J. Fox, Gaussian, Inc., Wallingford CT, 2013.
 
 ******************************************
 Gaussian 09:  ES64L-G09RevD.01 24-Apr-2013
                10-Apr-2016 
 ******************************************
 %chk=best
 -----------------------
 #P AM1(Input,Print) opt
 -----------------------
 1/14=-1,18=20,19=15,26=1,38=1/1,3;
 2/9=110,12=2,17=6,18=5,40=1/2;
 3/5=2,16=1,25=1,41=700000,71=1,135=100,136=1/1,2,3;
 4/35=1/1;
 5/5=2,35=1,38=5/2;
 6/7=2,8=2,9=2,10=2,28=1/1;
 7//1,2,3,16;
 1/14=-1,18=20,19=15,26=1/3(2);
 2/9=110/2;
 99//99;
 2/9=110/2;
 3/5=2,16=1,25=1,41=700000,71=1,135=20,136=1/1,2,3;
 4/5=5,16=3,35=1/1;
 5/5=2,35=1,38=5/2;
 7//1,2,3,16;
 1/14=-1,18=20,19=15,26=1/3(-5);
 2/9=110/2;
 6/7=2,8=2,9=2,10=2,19=2,28=1/1;
 99/9=1/99;
 Leave Link    1 at Sun Apr 10 10:09:07 2016, MaxMem=           0 cpu:         0.0
 (Enter /home/dustin/Applications/g09/g09/l101.exe)
 ----
 best
 ----
 Symbolic Z-matrix:
 Charge =  0 Multiplicity = 1
 6                     0.89853  -0.7114   -0.01964 
 6                    -0.48741  -1.20704   0.04025 
 6                    -0.36278   1.23645   0.05614 
 6                     0.87497   0.76293  -0.03954 
 1                     1.80262   1.32622  -0.11066 
 1                    -0.57449   2.35749   0.17325 
 1                    -0.61471  -2.27648   0.1265 
 1                     1.78239  -1.27041  -0.0789 
 16                   -1.63378   0.1047   -0.15119 
 
 NAtoms=      9 NQM=        9 NQMF=       0 NMMI=      0 NMMIF=      0
                NMic=       0 NMicF=      0.
                    Isotopes and Nuclear Properties:
 (Nuclear quadrupole moments (NQMom) in fm**2, nuclear magnetic moments (NMagM)
  in nuclear magnetons)

  Atom         1           2           3           4           5           6           7           8           9
 IAtWgt=          12          12          12          12           1           1           1           1          32
 AtmWgt=  12.0000000  12.0000000  12.0000000  12.0000000   1.0078250   1.0078250   1.0078250   1.0078250  31.9720718
 NucSpn=           0           0           0           0           1           1           1           1           0
 AtZEff=   0.0000000   0.0000000   0.0000000   0.0000000   0.0000000   0.0000000   0.0000000   0.0000000   0.0000000
 NQMom=    0.0000000   0.0000000   0.0000000   0.0000000   0.0000000   0.0000000   0.0000000   0.0000000   0.0000000
 NMagM=    0.0000000   0.0000000   0.0000000   0.0000000   2.7928460   2.7928460   2.7928460   2.7928460   0.0000000
 AtZNuc=   6.0000000   6.0000000   6.0000000   6.0000000   1.0000000   1.0000000   1.0000000   1.0000000  16.0000000
 Leave Link  101 at Sun Apr 10 10:09:07 2016, MaxMem=    33554432 cpu:         0.0
 (Enter /home/dustin/Applications/g09/g09/l103.exe)

 GradGradGradGradGradGradGradGradGradGradGradGradGradGradGradGradGradGrad
 Berny optimization.
 Initialization pass.
                           ----------------------------
                           !    Initial Parameters    !
                           ! (Angstroms and Degrees)  !
 --------------------------                            --------------------------
 ! Name  Definition              Value          Derivative Info.                !
 --------------------------------------------------------------------------------
 ! R1    R(1,2)                  1.4731         estimate D2E/DX2                !
 ! R2    R(1,4)                  1.4747         estimate D2E/DX2                !
 ! R3    R(1,8)                  1.0475         estimate D2E/DX2                !
 ! R4    R(2,7)                  1.0804         estimate D2E/DX2                !
 ! R5    R(2,9)                  1.7526         estimate D2E/DX2                !
 ! R6    R(3,4)                  1.3287         estimate D2E/DX2                !
 ! R7    R(3,6)                  1.1469         estimate D2E/DX2                !
 ! R8    R(3,9)                  1.7144         estimate D2E/DX2                !
 ! R9    R(4,5)                  1.0876         estimate D2E/DX2                !
 ! A1    A(2,1,4)              108.7779         estimate D2E/DX2                !
 ! A2    A(2,1,8)              128.0687         estimate D2E/DX2                !
 ! A3    A(4,1,8)              123.1116         estimate D2E/DX2                !
 ! A4    A(1,2,7)              116.5591         estimate D2E/DX2                !
 ! A5    A(1,2,9)              111.047          estimate D2E/DX2                !
 ! A6    A(7,2,9)              132.2608         estimate D2E/DX2                !
 ! A7    A(4,3,6)              121.8487         estimate D2E/DX2                !
 ! A8    A(4,3,9)              116.5291         estimate D2E/DX2                !
 ! A9    A(6,3,9)              121.3838         estimate D2E/DX2                !
 ! A10   A(1,4,3)              111.7287         estimate D2E/DX2                !
 ! A11   A(1,4,5)              120.3357         estimate D2E/DX2                !
 ! A12   A(3,4,5)              127.9289         estimate D2E/DX2                !
 ! A13   A(2,9,3)               89.7679         estimate D2E/DX2                !
 ! D1    D(4,1,2,7)           -176.0691         estimate D2E/DX2                !
 ! D2    D(4,1,2,9)              7.6069         estimate D2E/DX2                !
 ! D3    D(8,1,2,7)              6.2508         estimate D2E/DX2                !
 ! D4    D(8,1,2,9)           -170.0732         estimate D2E/DX2                !
 ! D5    D(2,1,4,3)              2.5569         estimate D2E/DX2                !
 ! D6    D(2,1,4,5)           -178.3062         estimate D2E/DX2                !
 ! D7    D(8,1,4,3)           -179.6235         estimate D2E/DX2                !
 ! D8    D(8,1,4,5)             -0.4867         estimate D2E/DX2                !
 ! D9    D(1,2,9,3)            -11.9024         estimate D2E/DX2                !
 ! D10   D(7,2,9,3)            172.5419         estimate D2E/DX2                !
 ! D11   D(6,3,4,1)            173.1765         estimate D2E/DX2                !
 ! D12   D(6,3,4,5)             -5.879          estimate D2E/DX2                !
 ! D13   D(9,3,4,1)            -12.362          estimate D2E/DX2                !
 ! D14   D(9,3,4,5)            168.5825         estimate D2E/DX2                !
 ! D15   D(4,3,9,2)             14.447          estimate D2E/DX2                !
 ! D16   D(6,3,9,2)           -171.0638         estimate D2E/DX2                !
 --------------------------------------------------------------------------------
 Trust Radius=3.00D-01 FncErr=1.00D-07 GrdErr=1.00D-07
 Number of steps in this run=     48 maximum allowed number of steps=    100.
 GradGradGradGradGradGradGradGradGradGradGradGradGradGradGradGradGradGrad

 Leave Link  103 at Sun Apr 10 10:09:07 2016, MaxMem=    33554432 cpu:         0.0
 (Enter /home/dustin/Applications/g09/g09/l202.exe)
                          Input orientation:                          
 ---------------------------------------------------------------------
 Center     Atomic      Atomic             Coordinates (Angstroms)
 Number     Number       Type             X           Y           Z
 ---------------------------------------------------------------------
      1          6           0        0.898529   -0.711401   -0.019640
      2          6           0       -0.487411   -1.207038    0.040254
      3          6           0       -0.362781    1.236445    0.056141
      4          6           0        0.874971    0.762928   -0.039536
      5          1           0        1.802616    1.326223   -0.110659
      6          1           0       -0.574488    2.357490    0.173247
      7          1           0       -0.614706   -2.276480    0.126503
      8          1           0        1.782390   -1.270412   -0.078902
      9         16           0       -1.633779    0.104702   -0.151189
 ---------------------------------------------------------------------
                    Distance matrix (angstroms):
                    1          2          3          4          5
     1  C    0.000000
     2  C    1.473117   0.000000
     3  C    2.321799   2.446711   0.000000
     4  C    1.474651   2.396501   1.328684   0.000000
     5  H    2.231047   3.418247   2.173667   1.087605   0.000000
     6  H    3.409557   3.568071   1.146855   2.165372   2.606672
     7  H    2.181905   1.080439   3.522649   3.388909   4.345016
     8  H    1.047481   2.273810   3.302170   2.226978   2.596908
     9  S    2.663816   1.752562   1.714428   2.596065   3.647268
                    6          7          8          9
     6  H    0.000000
     7  H    4.634380   0.000000
     8  H    4.333604   2.607764   0.000000
     9  S    2.510460   2.604928   3.683256   0.000000
 Stoichiometry    C4H4S
 Framework group  C1[X(C4H4S)]
 Deg. of freedom    21
 Full point group                 C1      NOp   1
 Largest Abelian subgroup         C1      NOp   1
 Largest concise Abelian subgroup C1      NOp   1
                         Standard orientation:                         
 ---------------------------------------------------------------------
 Center     Atomic      Atomic             Coordinates (Angstroms)
 Number     Number       Type             X           Y           Z
 ---------------------------------------------------------------------
      1          6           0       -1.341384    0.711447   -0.021971
      2          6           0        0.020779    1.261095    0.089708
      3          6           0       -0.008243   -1.185412    0.102163
      4          6           0       -1.259177   -0.760799   -0.040205
      5          1           0       -2.160643   -1.360036   -0.145847
      6          1           0        0.242805   -2.297386    0.227722
      7          1           0        0.102619    2.334629    0.180126
      8          1           0       -2.243679    1.235357   -0.114695
      9         16           0        1.224191   -0.004409   -0.057842
 ---------------------------------------------------------------------
 Rotational constants (GHZ):      7.9399358      5.1218391      3.1315477
 Leave Link  202 at Sun Apr 10 10:09:07 2016, MaxMem=    33554432 cpu:         0.0
 (Enter /home/dustin/Applications/g09/g09/l301.exe)

 Semi-emprical parameters in input format:
 Method=8 CoreType=1 PeptideFC=0.0114505045 RIJScale=0.5097085656
 ****
 H       
 PQN=1 NValence=1 F0ss=0.4721553327 ZetaOverlap=1.1967899151 U=-0.4178165546
 Beta=-0.2268825074 CoreKO=1.0589197790 KON=0,0,0,1.0589197790 KON=1,0,1,1.0589197790
 KON=0,1,1,1.1338497770 KON=2,1,1,1.0589197790 EISol=-0.4188110042 EHeat=0.0830298228
 Alpha=1.5420711911
 GCore=0.0085277107,1.4001425905,2.3518998584
 GCore=0.0003550160,1.3820364847,3.2944744699
 GCore=-0.0013331749,0.5569399777,3.9678528693
 ****
 C       
 PQN=2,2 NValence=4 F0ss=0.4713999445 F0sp=0.4215147623 F0pp=0.3775130132 F2pp=0.1946535675
 G1sp=0.2620642432
 ZetaOverlap=1.8289129402,1.6851160000
 U=-1.8208872931,-1.4557965594
 Beta=-0.5861407426,-0.3014199899 DDN=0,1,0.8236736000 DDN=1,1,0.7357327041
 CoreKO=1.0543372640 KON=0,0,0,1.1499164562 KON=1,0,1,0.8142463874 KON=0,1,1,1.1847630970
 KON=2,1,1,0.8407984374 EISol=-4.4398989268 EHeat=0.2723305520 Alpha=1.4014062429
 DipHyp=1.6472524267
 GCore=0.0007466651,1.4748244111,3.0235618126
 GCore=0.0030270540,1.3946676127,3.5670991522
 GCore=-0.0014435585,1.4672652968,3.9169159928
 GCore=-0.0000925100,1.3855898444,4.7742848384
 ****
 S       
 PQN=3,3 NValence=6 F0ss=0.4299117232 F0sp=0.3183640731 F0pp=0.3159896537 F2pp=0.3492272603
 G1sp=0.2802194606
 ZetaOverlap=2.2599319466,1.5025669507,0.9900363356
 U=-2.0808039047,-1.8031392230
 Beta=-0.1455396953,-0.2874926072 DDN=0,1,0.9004265000 DDN=1,1,0.8814241665
 CoreKO=1.1097709178 KON=0,0,0,1.1543033468 KON=1,0,1,0.8464368816 KON=0,1,1,1.1215728428
 KON=2,1,1,0.7746001785 EISol=-7.0460287497 EHeat=0.1058151363 Alpha=1.3026480172
 DipHyp=1.8007493954
 GCore=-0.0319045018,1.4127101318,1.4563457902
 GCore=-0.0008126128,1.7658522049,2.8456265567
 GCore=0.0008107998,3.5617377255,3.7967867236
 ****
 
 Standard basis: VSTO-6G (5D, 7F)
 Ernie: Thresh=  0.10000D-02 Tol=  0.10000D-05 Strict=F.
  NNHCO=     0 NNPyr=     0 NCTC=     0               EPep=         0.000000000
    EC=        63.655844525  ECS=         1.572988875   EG=         0.134660591
   EHC=         0.000000000  EAt=       -26.480868474  AtH=         1.527256636
 EPDDG=         0.000000000  ECC=        65.363493990 EAtT=        28.008125109
 There are    24 symmetry adapted cartesian basis functions of A   symmetry.
 There are    24 symmetry adapted basis functions of A   symmetry.
    24 basis functions,   144 primitive gaussians,    24 cartesian basis functions
    13 alpha electrons       13 beta electrons
       nuclear repulsion energy        93.3716190992 Hartrees.



 Warning!  S  atom    9 may be hypervalent but has no d functions.



 IExCor=    0 DFT=F Ex=HF Corr=None ExCW=0 ScaHFX=  1.000000
 ScaDFX=  1.000000  1.000000  1.000000  1.000000 ScalE2=  1.000000  1.000000
 IRadAn=      0 IRanWt=     -1 IRanGd=            0 ICorTp=0 IEmpDi=  4
 Integral buffers will be    131072 words long.
 Regular integral format.
 Two-electron integral symmetry is turned off.
 Leave Link  301 at Sun Apr 10 10:09:07 2016, MaxMem=    33554432 cpu:         0.0
 (Enter /home/dustin/Applications/g09/g09/l302.exe)
 Do NDO integrals.
 NPDir=0 NMtPBC=     1 NCelOv=     1 NCel=       1 NClECP=     1 NCelD=      1
         NCelK=      1 NCelE2=     1 NClLst=     1 CellRange=     0.0.
 One-electron integrals computed using PRISM.
 NBasis=    24 RedAO= F EigKep=  0.00D+00  NBF=    24
 NBsUse=    24 1.00D-04 EigRej=  0.00D+00 NBFU=    24
 Leave Link  302 at Sun Apr 10 10:09:07 2016, MaxMem=    33554432 cpu:         0.0
 (Enter /home/dustin/Applications/g09/g09/l303.exe)
 DipDrv:  MaxL=1.
 Leave Link  303 at Sun Apr 10 10:09:07 2016, MaxMem=    33554432 cpu:         0.0
 (Enter /home/dustin/Applications/g09/g09/l401.exe)
 Simple Huckel Guess.
 JPrj=0 DoOrth=F DoCkMO=F.
 Leave Link  401 at Sun Apr 10 10:09:07 2016, MaxMem=    33554432 cpu:         0.0
 (Enter /home/dustin/Applications/g09/g09/l502.exe)
 Closed shell SCF:
 Using DIIS extrapolation, IDIIS=  1040.
 Overlap will be assumed to be unity.
 Two-electron integral symmetry not used.
 Keep J ints in memory in canonical form, NReq=888082.
 IVT=       79475 IEndB=       79475 NGot=    33554432 MDV=    33473473
 LenX=    33473473 LenY=    33472456
 Requested convergence on RMS density matrix=1.00D-08 within 128 cycles.
 Requested convergence on MAX density matrix=1.00D-06.
 Requested convergence on             energy=1.00D-06.
 No special actions if energy rises.
 FoFCou: FMM=F IPFlag=           0 FMFlag=           0 FMFlg1=           0
         NFxFlg=           0 DoJE=F BraDBF=F KetDBF=F FulRan=T
         wScrn=  0.000000 ICntrl=     600 IOpCl=  2 I1Cent=           0 NGrid=           0
         NMat0=    1 NMatS0=     54 NMatT0=    0 NMatD0=    1 NMtDS0=    0 NMtDT0=    0
 Symmetry not used in FoFCou.

 Cycle   1  Pass 1  IDiag  1:
 E= 0.554433971405999    
 DIIS: error= 2.85D-02 at cycle   1 NSaved=   1.
 NSaved= 1 IEnMin= 1 EnMin= 0.554433971405999     IErMin= 1 ErrMin= 2.85D-02
 ErrMax= 2.85D-02  0.00D+00 EMaxC= 1.00D-01 BMatC= 2.45D-02 BMatP= 2.45D-02
 IDIUse=3 WtCom= 7.15D-01 WtEn= 2.85D-01
 Coeff-Com:  0.100D+01
 Coeff-En:   0.100D+01
 Coeff:      0.100D+01
 GapD=    2.000 DampG=2.000 DampE=0.500 DampFc=1.0000 IDamp=-1.
 RMSDP=1.38D-02 MaxDP=1.28D-01              OVMax= 0.00D+00

 Cycle   2  Pass 1  IDiag  1:
 E= 0.465637599339161     Delta-E=       -0.088796372067 Rises=F Damp=F
 DIIS: error= 1.13D-02 at cycle   2 NSaved=   2.
 NSaved= 2 IEnMin= 2 EnMin= 0.465637599339161     IErMin= 2 ErrMin= 1.13D-02
 ErrMax= 1.13D-02  0.00D+00 EMaxC= 1.00D-01 BMatC= 2.21D-03 BMatP= 2.45D-02
 IDIUse=3 WtCom= 8.87D-01 WtEn= 1.13D-01
 Coeff-Com: -0.369D+00 0.137D+01
 Coeff-En:   0.000D+00 0.100D+01
 Coeff:     -0.327D+00 0.133D+01
 RMSDP=6.02D-03 MaxDP=5.97D-02 DE=-8.88D-02 OVMax= 0.00D+00

 Cycle   3  Pass 1  IDiag  3:
 E= 0.455268114968717     Delta-E=       -0.010369484370 Rises=F Damp=F
 DIIS: error= 1.74D-03 at cycle   3 NSaved=   3.
 NSaved= 3 IEnMin= 3 EnMin= 0.455268114968717     IErMin= 3 ErrMin= 1.74D-03
 ErrMax= 1.74D-03  0.00D+00 EMaxC= 1.00D-01 BMatC= 6.73D-05 BMatP= 2.21D-03
 IDIUse=3 WtCom= 9.83D-01 WtEn= 1.74D-02
 Coeff-Com:  0.112D+00-0.477D+00 0.137D+01
 Coeff-En:   0.000D+00 0.000D+00 0.100D+01
 Coeff:      0.110D+00-0.469D+00 0.136D+01
 Gap=     0.340 Goal=   None    Shift=    0.000
 RMSDP=1.47D-03 MaxDP=1.58D-02 DE=-1.04D-02 OVMax= 1.88D-02

 Cycle   4  Pass 1  IDiag  3:
 E= 0.454761875096921     Delta-E=       -0.000506239872 Rises=F Damp=F
 DIIS: error= 3.49D-04 at cycle   4 NSaved=   4.
 NSaved= 4 IEnMin= 4 EnMin= 0.454761875096921     IErMin= 4 ErrMin= 3.49D-04
 ErrMax= 3.49D-04  0.00D+00 EMaxC= 1.00D-01 BMatC= 5.51D-06 BMatP= 6.73D-05
 IDIUse=3 WtCom= 9.97D-01 WtEn= 3.49D-03
 Coeff-Com: -0.117D-04 0.365D-02-0.291D+00 0.129D+01
 Coeff-En:   0.000D+00 0.000D+00 0.000D+00 0.100D+01
 Coeff:     -0.117D-04 0.363D-02-0.290D+00 0.129D+01
 Gap=     0.340 Goal=   None    Shift=    0.000
 RMSDP=5.24D-04 MaxDP=4.79D-03 DE=-5.06D-04 OVMax= 5.46D-03

 Cycle   5  Pass 1  IDiag  3:
 E= 0.454710276094886     Delta-E=       -0.000051599002 Rises=F Damp=F
 DIIS: error= 2.01D-04 at cycle   5 NSaved=   5.
 NSaved= 5 IEnMin= 5 EnMin= 0.454710276094886     IErMin= 5 ErrMin= 2.01D-04
 ErrMax= 2.01D-04  0.00D+00 EMaxC= 1.00D-01 BMatC= 6.75D-07 BMatP= 5.51D-06
 IDIUse=3 WtCom= 9.98D-01 WtEn= 2.01D-03
 Coeff-Com: -0.421D-02 0.174D-01 0.155D+00-0.100D+01 0.184D+01
 Coeff-En:   0.000D+00 0.000D+00 0.000D+00 0.000D+00 0.100D+01
 Coeff:     -0.420D-02 0.173D-01 0.155D+00-0.100D+01 0.183D+01
 Gap=     0.341 Goal=   None    Shift=    0.000
 RMSDP=2.42D-04 MaxDP=2.03D-03 DE=-5.16D-05 OVMax= 2.16D-03

 Cycle   6  Pass 1  IDiag  3:
 E= 0.454702613050671     Delta-E=       -0.000007663044 Rises=F Damp=F
 DIIS: error= 4.87D-05 at cycle   6 NSaved=   6.
 NSaved= 6 IEnMin= 6 EnMin= 0.454702613050671     IErMin= 6 ErrMin= 4.87D-05
 ErrMax= 4.87D-05  0.00D+00 EMaxC= 1.00D-01 BMatC= 3.25D-08 BMatP= 6.75D-07
 IDIUse=1 WtCom= 1.00D+00 WtEn= 0.00D+00
 Coeff-Com:  0.147D-02-0.664D-02-0.643D-01 0.427D+00-0.935D+00 0.158D+01
 Coeff:      0.147D-02-0.664D-02-0.643D-01 0.427D+00-0.935D+00 0.158D+01
 Gap=     0.341 Goal=   None    Shift=    0.000
 RMSDP=5.65D-05 MaxDP=5.16D-04 DE=-7.66D-06 OVMax= 5.27D-04

 Cycle   7  Pass 1  IDiag  3:
 E= 0.454702252908632     Delta-E=       -0.000000360142 Rises=F Damp=F
 DIIS: error= 6.67D-06 at cycle   7 NSaved=   7.
 NSaved= 7 IEnMin= 7 EnMin= 0.454702252908632     IErMin= 7 ErrMin= 6.67D-06
 ErrMax= 6.67D-06  0.00D+00 EMaxC= 1.00D-01 BMatC= 1.05D-09 BMatP= 3.25D-08
 IDIUse=1 WtCom= 1.00D+00 WtEn= 0.00D+00
 Coeff-Com: -0.657D-03 0.284D-02 0.260D-01-0.174D+00 0.385D+00-0.729D+00
 Coeff-Com:  0.149D+01
 Coeff:     -0.657D-03 0.284D-02 0.260D-01-0.174D+00 0.385D+00-0.729D+00
 Coeff:      0.149D+01
 Gap=     0.341 Goal=   None    Shift=    0.000
 RMSDP=7.49D-06 MaxDP=6.51D-05 DE=-3.60D-07 OVMax= 6.65D-05

 Cycle   8  Pass 1  IDiag  3:
 E= 0.454702244204313     Delta-E=       -0.000000008704 Rises=F Damp=F
 DIIS: error= 1.13D-06 at cycle   8 NSaved=   8.
 NSaved= 8 IEnMin= 8 EnMin= 0.454702244204313     IErMin= 8 ErrMin= 1.13D-06
 ErrMax= 1.13D-06  0.00D+00 EMaxC= 1.00D-01 BMatC= 6.52D-11 BMatP= 1.05D-09
 IDIUse=1 WtCom= 1.00D+00 WtEn= 0.00D+00
 Coeff-Com:  0.209D-03-0.893D-03-0.871D-02 0.571D-01-0.125D+00 0.239D+00
 Coeff-Com: -0.668D+00 0.151D+01
 Coeff:      0.209D-03-0.893D-03-0.871D-02 0.571D-01-0.125D+00 0.239D+00
 Coeff:     -0.668D+00 0.151D+01
 Gap=     0.341 Goal=   None    Shift=    0.000
 RMSDP=1.83D-06 MaxDP=1.23D-05 DE=-8.70D-09 OVMax= 1.75D-05

 Cycle   9  Pass 1  IDiag  3:
 E= 0.454702243661743     Delta-E=       -0.000000000543 Rises=F Damp=F
 DIIS: error= 2.30D-07 at cycle   9 NSaved=   9.
 NSaved= 9 IEnMin= 9 EnMin= 0.454702243661743     IErMin= 9 ErrMin= 2.30D-07
 ErrMax= 2.30D-07  0.00D+00 EMaxC= 1.00D-01 BMatC= 3.44D-12 BMatP= 6.52D-11
 IDIUse=1 WtCom= 1.00D+00 WtEn= 0.00D+00
 Coeff-Com: -0.447D-04 0.176D-03 0.173D-02-0.111D-01 0.238D-01-0.456D-01
 Coeff-Com:  0.165D+00-0.578D+00 0.144D+01
 Coeff:     -0.447D-04 0.176D-03 0.173D-02-0.111D-01 0.238D-01-0.456D-01
 Coeff:      0.165D+00-0.578D+00 0.144D+01
 Gap=     0.341 Goal=   None    Shift=    0.000
 RMSDP=4.13D-07 MaxDP=1.99D-06 DE=-5.43D-10 OVMax= 3.77D-06

 Cycle  10  Pass 1  IDiag  3:
 E= 0.454702243632070     Delta-E=       -0.000000000030 Rises=F Damp=F
 DIIS: error= 8.33D-08 at cycle  10 NSaved=  10.
 NSaved=10 IEnMin=10 EnMin= 0.454702243632070     IErMin=10 ErrMin= 8.33D-08
 ErrMax= 8.33D-08  0.00D+00 EMaxC= 1.00D-01 BMatC= 2.39D-13 BMatP= 3.44D-12
 IDIUse=1 WtCom= 1.00D+00 WtEn= 0.00D+00
 Coeff-Com:  0.245D-05-0.302D-05-0.113D-03 0.543D-03-0.883D-03 0.170D-02
 Coeff-Com: -0.244D-01 0.148D+00-0.621D+00 0.150D+01
 Coeff:      0.245D-05-0.302D-05-0.113D-03 0.543D-03-0.883D-03 0.170D-02
 Coeff:     -0.244D-01 0.148D+00-0.621D+00 0.150D+01
 Gap=     0.341 Goal=   None    Shift=    0.000
 RMSDP=1.19D-07 MaxDP=6.49D-07 DE=-2.97D-11 OVMax= 1.00D-06

 Cycle  11  Pass 1  IDiag  3:
 E= 0.454702243629782     Delta-E=       -0.000000000002 Rises=F Damp=F
 DIIS: error= 2.34D-08 at cycle  11 NSaved=  11.
 NSaved=11 IEnMin=11 EnMin= 0.454702243629782     IErMin=11 ErrMin= 2.34D-08
 ErrMax= 2.34D-08  0.00D+00 EMaxC= 1.00D-01 BMatC= 2.01D-14 BMatP= 2.39D-13
 IDIUse=1 WtCom= 1.00D+00 WtEn= 0.00D+00
 Coeff-Com:  0.153D-05-0.104D-04-0.260D-04 0.307D-03-0.858D-03 0.169D-02
 Coeff-Com:  0.583D-02-0.594D-01 0.305D+00-0.967D+00 0.171D+01
 Coeff:      0.153D-05-0.104D-04-0.260D-04 0.307D-03-0.858D-03 0.169D-02
 Coeff:      0.583D-02-0.594D-01 0.305D+00-0.967D+00 0.171D+01
 Gap=     0.341 Goal=   None    Shift=    0.000
 RMSDP=3.77D-08 MaxDP=1.93D-07 DE=-2.29D-12 OVMax= 3.28D-07

 Cycle  12  Pass 1  IDiag  3:
 E= 0.454702243629527     Delta-E=        0.000000000000 Rises=F Damp=F
 DIIS: error= 3.81D-09 at cycle  12 NSaved=  12.
 NSaved=12 IEnMin=12 EnMin= 0.454702243629527     IErMin=12 ErrMin= 3.81D-09
 ErrMax= 3.81D-09  0.00D+00 EMaxC= 1.00D-01 BMatC= 8.71D-16 BMatP= 2.01D-14
 IDIUse=1 WtCom= 1.00D+00 WtEn= 0.00D+00
 Coeff-Com: -0.740D-06 0.498D-05 0.169D-04-0.169D-03 0.455D-03-0.914D-03
 Coeff-Com: -0.201D-02 0.242D-01-0.130D+00 0.430D+00-0.892D+00 0.157D+01
 Coeff:     -0.740D-06 0.498D-05 0.169D-04-0.169D-03 0.455D-03-0.914D-03
 Coeff:     -0.201D-02 0.242D-01-0.130D+00 0.430D+00-0.892D+00 0.157D+01
 Gap=     0.341 Goal=   None    Shift=    0.000
 RMSDP=7.29D-09 MaxDP=3.46D-08 DE=-2.56D-13 OVMax= 5.14D-08

 Cycle  13  Pass 2  IDiag  1:
 SCF Done:  E(RAM1) =  0.454702243630     A.U. after   13 cycles
            NFock= 12  Conv=0.73D-08     -V/T= 1.0323
 KE=-1.406199989356D+01 PE=-1.535828671824D+02 EE= 7.472795022037D+01
 Leave Link  502 at Sun Apr 10 10:09:07 2016, MaxMem=    33554432 cpu:         0.0
 (Enter /home/dustin/Applications/g09/g09/l601.exe)
 Copying SCF densities to generalized density rwf, IOpCl= 0 IROHF=0.

 **********************************************************************

            Population analysis using the SCF density.

 **********************************************************************

 Orbital symmetries:
       Occupied  (A) (A) (A) (A) (A) (A) (A) (A) (A) (A) (A) (A)
                 (A)
       Virtual   (A) (A) (A) (A) (A) (A) (A) (A) (A) (A) (A)
 The electronic state is 1-A.
 Alpha  occ. eigenvalues --   -1.37634  -1.08751  -0.92920  -0.77711  -0.73475
 Alpha  occ. eigenvalues --   -0.67051  -0.57735  -0.57160  -0.55660  -0.53032
 Alpha  occ. eigenvalues --   -0.48122  -0.40850  -0.39347
 Alpha virt. eigenvalues --   -0.05291  -0.02152  -0.01098   0.00677   0.08798
 Alpha virt. eigenvalues --    0.09388   0.12009   0.12609   0.14100   0.15376
 Alpha virt. eigenvalues --    0.15732
          Condensed to atoms (all electrons):
               1          2          3          4          5          6
     1  C    4.116175   0.000000   0.000000   0.000000   0.000000   0.000000
     2  C    0.000000   4.140612   0.000000   0.000000   0.000000   0.000000
     3  C    0.000000   0.000000   4.169406   0.000000   0.000000   0.000000
     4  C    0.000000   0.000000   0.000000   4.112446   0.000000   0.000000
     5  H    0.000000   0.000000   0.000000   0.000000   0.939782   0.000000
     6  H    0.000000   0.000000   0.000000   0.000000   0.000000   0.930230
     7  H    0.000000   0.000000   0.000000   0.000000   0.000000   0.000000
     8  H    0.000000   0.000000   0.000000   0.000000   0.000000   0.000000
     9  S    0.000000   0.000000   0.000000   0.000000   0.000000   0.000000
               7          8          9
     1  C    0.000000   0.000000   0.000000
     2  C    0.000000   0.000000   0.000000
     3  C    0.000000   0.000000   0.000000
     4  C    0.000000   0.000000   0.000000
     5  H    0.000000   0.000000   0.000000
     6  H    0.000000   0.000000   0.000000
     7  H    0.942951   0.000000   0.000000
     8  H    0.000000   0.949739   0.000000
     9  S    0.000000   0.000000   5.698659
 Mulliken charges:
               1
     1  C   -0.116175
     2  C   -0.140612
     3  C   -0.169406
     4  C   -0.112446
     5  H    0.060218
     6  H    0.069770
     7  H    0.057049
     8  H    0.050261
     9  S    0.301341
 Sum of Mulliken charges =   0.00000
 Mulliken charges with hydrogens summed into heavy atoms:
               1
     1  C   -0.065914
     2  C   -0.083563
     3  C   -0.099636
     4  C   -0.052228
     9  S    0.301341
 Charge=              0.0000 electrons
 Dipole moment (field-independent basis, Debye):
    X=              0.6575    Y=             -0.0736    Z=             -0.0690  Tot=              0.6652
 N-N= 9.337161909922D+01 E-N=-1.535828672048D+02  KE=-1.406199989356D+01
 Leave Link  601 at Sun Apr 10 10:09:07 2016, MaxMem=    33554432 cpu:         0.0
 (Enter /home/dustin/Applications/g09/g09/l701.exe)
 Compute integral first derivatives.
 ... and contract with generalized density number  0.
 Leave Link  701 at Sun Apr 10 10:09:07 2016, MaxMem=    33554432 cpu:         0.0
 (Enter /home/dustin/Applications/g09/g09/l702.exe)
 L702 exits ... SP integral derivatives will be done elsewhere.
 Leave Link  702 at Sun Apr 10 10:09:07 2016, MaxMem=    33554432 cpu:         0.0
 (Enter /home/dustin/Applications/g09/g09/l703.exe)
 Compute integral first derivatives, UseDBF=F ICtDFT=           0.
 Integral derivatives from FoFJK, PRISM(SPDF).
 Calling FoFJK, ICntrl=      2127 FMM=F ISym2X=0 I1Cent= 0 IOpClX= 0 NMat=1 NMatS=1 NMatT=0.
 FoFJK:  IHMeth= 8 ICntrl=    2127 DoSepK=F KAlg= 0 I1Cent=   0 FoldK=F
 IRaf=         0 NMat=   1 IRICut=       1 DoRegI=T DoRafI=F ISym2E= 0.
 FoFCou: FMM=F IPFlag=           0 FMFlag=      100000 FMFlg1=         800
         NFxFlg=           0 DoJE=F BraDBF=F KetDBF=F FulRan=T
         wScrn=  0.000000 ICntrl=    2127 IOpCl=  0 I1Cent=           0 NGrid=           0
         NMat0=    1 NMatS0=      1 NMatT0=    0 NMatD0=    1 NMtDS0=    0 NMtDT0=    0
 Symmetry not used in FoFCou.
 Leave Link  703 at Sun Apr 10 10:09:07 2016, MaxMem=    33554432 cpu:         0.0
 (Enter /home/dustin/Applications/g09/g09/l716.exe)
 Dipole        = 2.58675131D-01-2.89433297D-02-2.71487622D-02
 ***** Axes restored to original set *****
 -------------------------------------------------------------------
 Center     Atomic                   Forces (Hartrees/Bohr)
 Number     Number              X              Y              Z
 -------------------------------------------------------------------
      1        6          -0.117462196    0.033953433    0.001374220
      2        6           0.117970970    0.018012448   -0.014593661
      3        6          -0.031349351    0.091570565   -0.005690127
      4        6           0.048596368   -0.075232795    0.005153675
      5        1          -0.008725713   -0.003812198    0.003384074
      6        1           0.002680474   -0.044019286   -0.006470568
      7        1          -0.011939863    0.012931853   -0.002535893
      8        1           0.008415520   -0.011083656    0.002701783
      9       16          -0.008186210   -0.022320364    0.016676498
 -------------------------------------------------------------------
 Cartesian Forces:  Max     0.117970970 RMS     0.043163993
 Leave Link  716 at Sun Apr 10 10:09:07 2016, MaxMem=    33554432 cpu:         0.0
 (Enter /home/dustin/Applications/g09/g09/l103.exe)

 GradGradGradGradGradGradGradGradGradGradGradGradGradGradGradGradGradGrad
 Berny optimization.
 FormGI is forming the generalized inverse of G from B-inverse, IUseBI=4.
 Internal  Forces:  Max     0.098825322 RMS     0.022377135
 Search for a local minimum.
 Step number   1 out of a maximum of   48
 All quantities printed in internal units (Hartrees-Bohrs-Radians)
 RMS Force = .22377D-01 SwitMx=.10000D-02 MixMth= 1
 Mixed Optimization -- RFO/linear search
 Second derivative matrix not updated -- first step.
 ITU=  0
     Eigenvalues ---    0.01075   0.01114   0.01206   0.02048   0.02218
     Eigenvalues ---    0.02596   0.15939   0.15951   0.15982   0.15998
     Eigenvalues ---    0.21813   0.22599   0.28990   0.29455   0.32546
     Eigenvalues ---    0.34583   0.34787   0.35091   0.35941   0.40228
     Eigenvalues ---    0.56964
 RFO step:  Lambda=-5.43454364D-02 EMin= 1.07536510D-02
 Linear search not attempted -- first point.
 Maximum step size (   0.300) exceeded in Quadratic search.
    -- Step size scaled by   0.832
 Iteration  1 RMS(Cart)=  0.05466113 RMS(Int)=  0.00367817
 Iteration  2 RMS(Cart)=  0.00354373 RMS(Int)=  0.00162994
 Iteration  3 RMS(Cart)=  0.00000504 RMS(Int)=  0.00162993
 Iteration  4 RMS(Cart)=  0.00000001 RMS(Int)=  0.00162993
 ITry= 1 IFail=0 DXMaxC= 1.53D-01 DCOld= 1.00D+10 DXMaxT= 3.00D-01 DXLimC= 3.00D+00 Rises=F
 Variable       Old X    -DE/DX   Delta X   Delta X   Delta X     New X
                                 (Linear)    (Quad)   (Total)
    R1        2.78379  -0.09883   0.00000  -0.21192  -0.21176   2.57202
    R2        2.78669  -0.04496   0.00000  -0.09484  -0.09455   2.69214
    R3        1.97945   0.01286   0.00000   0.02342   0.02342   2.00288
    R4        2.04173  -0.01160   0.00000  -0.02330  -0.02330   2.01843
    R5        3.31186  -0.00192   0.00000  -0.00926  -0.00939   3.30247
    R6        2.51085   0.03768   0.00000   0.05329   0.05339   2.56424
    R7        2.16724  -0.04418   0.00000  -0.10673  -0.10673   2.06052
    R8        3.23980   0.00723   0.00000   0.02464   0.02432   3.26412
    R9        2.05528  -0.00964   0.00000  -0.01978  -0.01978   2.03550
    A1        1.89853   0.02322   0.00000   0.05452   0.05378   1.95231
    A2        2.23522  -0.01646   0.00000  -0.04604  -0.04562   2.18961
    A3        2.14870  -0.00676   0.00000  -0.00849  -0.00812   2.14058
    A4        2.03434   0.00670   0.00000   0.04196   0.04153   2.07588
    A5        1.93814   0.01427   0.00000   0.02761   0.02587   1.96401
    A6        2.30839  -0.02067   0.00000  -0.06470  -0.06509   2.24329
    A7        2.12666   0.02099   0.00000   0.05739   0.05712   2.18378
    A8        2.03382  -0.02871   0.00000  -0.05938  -0.06234   1.97147
    A9        2.11855   0.00851   0.00000   0.00961   0.00935   2.12789
   A10        1.95003   0.00035   0.00000   0.01354   0.01257   1.96260
   A11        2.10025   0.00129   0.00000  -0.00096  -0.00067   2.09959
   A12        2.23278  -0.00160   0.00000  -0.01214  -0.01188   2.22090
   A13        1.56675  -0.00617   0.00000   0.00068  -0.00192   1.56482
    D1       -3.07299  -0.00081   0.00000  -0.00280   0.00022  -3.07276
    D2        0.13277  -0.00414   0.00000  -0.06699  -0.06839   0.06438
    D3        0.10910  -0.00092   0.00000  -0.00287  -0.00109   0.10801
    D4       -2.96834  -0.00426   0.00000  -0.06706  -0.06970  -3.03804
    D5        0.04463  -0.00055   0.00000  -0.01388  -0.01595   0.02867
    D6       -3.11203   0.00137   0.00000   0.01421   0.01288  -3.09916
    D7       -3.13502  -0.00077   0.00000  -0.01497  -0.01580   3.13237
    D8       -0.00849   0.00116   0.00000   0.01311   0.01303   0.00454
    D9       -0.20774   0.00564   0.00000   0.09922   0.10222  -0.10551
   D10        3.01142  -0.00011   0.00000   0.01537   0.01968   3.03110
   D11        3.02250   0.00077   0.00000   0.01779   0.01836   3.04086
   D12       -0.10261  -0.00137   0.00000  -0.01309  -0.01305  -0.11566
   D13       -0.21576   0.01022   0.00000   0.10628   0.10548  -0.11028
   D14        2.94232   0.00808   0.00000   0.07541   0.07407   3.01639
   D15        0.25215  -0.01538   0.00000  -0.13424  -0.12966   0.12248
   D16       -2.98563  -0.00522   0.00000  -0.04332  -0.04268  -3.02831
         Item               Value     Threshold  Converged?
 Maximum Force            0.098825     0.000450     NO 
 RMS     Force            0.022377     0.000300     NO 
 Maximum Displacement     0.153489     0.001800     NO 
 RMS     Displacement     0.056629     0.001200     NO 
 Predicted change in Energy=-3.035667D-02
 Lowest energy point so far.  Saving SCF results.
 GradGradGradGradGradGradGradGradGradGradGradGradGradGradGradGradGradGrad

 Leave Link  103 at Sun Apr 10 10:09:07 2016, MaxMem=    33554432 cpu:         0.0
 (Enter /home/dustin/Applications/g09/g09/l202.exe)
                          Input orientation:                          
 ---------------------------------------------------------------------
 Center     Atomic      Atomic             Coordinates (Angstroms)
 Number     Number       Type             X           Y           Z
 ---------------------------------------------------------------------
      1          6           0        0.850183   -0.689326   -0.017079
      2          6           0       -0.420267   -1.176594    0.014557
      3          6           0       -0.372555    1.272673    0.034363
      4          6           0        0.871877    0.735098   -0.026340
      5          1           0        1.808105    1.263904   -0.090165
      6          1           0       -0.592416    2.336422    0.129351
      7          1           0       -0.567352   -2.231926    0.088676
      8          1           0        1.732176   -1.274916   -0.067177
      9         16           0       -1.624411    0.087122   -0.069966
 ---------------------------------------------------------------------
                    Distance matrix (angstroms):
                    1          2          3          4          5
     1  C    0.000000
     2  C    1.361056   0.000000
     3  C    2.312396   2.449811   0.000000
     4  C    1.424620   2.307786   1.356939   0.000000
     5  H    2.176709   3.306454   2.184231   1.077140   0.000000
     6  H    3.355248   3.519104   1.090378   2.175461   2.638368
     7  H    2.097666   1.068107   3.510428   3.299673   4.230320
     8  H    1.059876   2.156237   3.306118   2.186765   2.540059
     9  S    2.594086   1.747594   1.727297   2.579386   3.628690
                    6          7          8          9
     6  H    0.000000
     7  H    4.568597   0.000000
     8  H    4.299316   2.495593   0.000000
     9  S    2.482758   2.553532   3.622407   0.000000
 Stoichiometry    C4H4S
 Framework group  C1[X(C4H4S)]
 Deg. of freedom    21
 Full point group                 C1      NOp   1
 RotChk:  IX=3 Diff= 4.66D-02
 Largest Abelian subgroup         C1      NOp   1
 Largest concise Abelian subgroup C1      NOp   1
                         Standard orientation:                         
 ---------------------------------------------------------------------
 Center     Atomic      Atomic             Coordinates (Angstroms)
 Number     Number       Type             X           Y           Z
 ---------------------------------------------------------------------
      1          6           0       -1.302385    0.665442   -0.006427
      2          6           0       -0.063998    1.227945    0.043162
      3          6           0        0.035330   -1.219835    0.052081
      4          6           0       -1.238323   -0.757652   -0.021942
      5          1           0       -2.140227   -1.341392   -0.099706
      6          1           0        0.317542   -2.268921    0.145345
      7          1           0        0.018481    2.289825    0.123550
      8          1           0       -2.217296    1.197262   -0.065105
      9         16           0        1.214859    0.039239   -0.031583
 ---------------------------------------------------------------------
 Rotational constants (GHZ):      8.1423057      5.2839647      3.2102296
 Leave Link  202 at Sun Apr 10 10:09:07 2016, MaxMem=    33554432 cpu:         0.0
 (Enter /home/dustin/Applications/g09/g09/l301.exe)

 Semi-emprical parameters in input format:
 Method=8 CoreType=1 PeptideFC=0.0114505045 RIJScale=0.5097085656
 ****
 H       
 PQN=1 NValence=1 F0ss=0.4721553327 ZetaOverlap=1.1967899151 U=-0.4178165546
 Beta=-0.2268825074 CoreKO=1.0589197790 KON=0,0,0,1.0589197790 KON=1,0,1,1.0589197790
 KON=0,1,1,1.1338497770 KON=2,1,1,1.0589197790 EISol=-0.4188110042 EHeat=0.0830298228
 Alpha=1.5420711911
 GCore=0.0085277107,1.4001425905,2.3518998584
 GCore=0.0003550160,1.3820364847,3.2944744699
 GCore=-0.0013331749,0.5569399777,3.9678528693
 ****
 C       
 PQN=2,2 NValence=4 F0ss=0.4713999445 F0sp=0.4215147623 F0pp=0.3775130132 F2pp=0.1946535675
 G1sp=0.2620642432
 ZetaOverlap=1.8289129402,1.6851160000
 U=-1.8208872931,-1.4557965594
 Beta=-0.5861407426,-0.3014199899 DDN=0,1,0.8236736000 DDN=1,1,0.7357327041
 CoreKO=1.0543372640 KON=0,0,0,1.1499164562 KON=1,0,1,0.8142463874 KON=0,1,1,1.1847630970
 KON=2,1,1,0.8407984374 EISol=-4.4398989268 EHeat=0.2723305520 Alpha=1.4014062429
 DipHyp=1.6472524267
 GCore=0.0007466651,1.4748244111,3.0235618126
 GCore=0.0030270540,1.3946676127,3.5670991522
 GCore=-0.0014435585,1.4672652968,3.9169159928
 GCore=-0.0000925100,1.3855898444,4.7742848384
 ****
 S       
 PQN=3,3 NValence=6 F0ss=0.4299117232 F0sp=0.3183640731 F0pp=0.3159896537 F2pp=0.3492272603
 G1sp=0.2802194606
 ZetaOverlap=2.2599319466,1.5025669507,0.9900363356
 U=-2.0808039047,-1.8031392230
 Beta=-0.1455396953,-0.2874926072 DDN=0,1,0.9004265000 DDN=1,1,0.8814241665
 CoreKO=1.1097709178 KON=0,0,0,1.1543033468 KON=1,0,1,0.8464368816 KON=0,1,1,1.1215728428
 KON=2,1,1,0.7746001785 EISol=-7.0460287497 EHeat=0.1058151363 Alpha=1.3026480172
 DipHyp=1.8007493954
 GCore=-0.0319045018,1.4127101318,1.4563457902
 GCore=-0.0008126128,1.7658522049,2.8456265567
 GCore=0.0008107998,3.5617377255,3.7967867236
 ****
 
 Standard basis: VSTO-6G (5D, 7F)
 Ernie: Thresh=  0.10000D-02 Tol=  0.10000D-05 Strict=F.
  NNHCO=     0 NNPyr=     0 NCTC=     0               EPep=         0.000000000
    EC=        64.370677094  ECS=         1.689182251   EG=         0.131471313
   EHC=         0.000000000  EAt=       -26.480868474  AtH=         1.527256636
 EPDDG=         0.000000000  ECC=        66.191330658 EAtT=        28.008125109
 There are    24 symmetry adapted cartesian basis functions of A   symmetry.
 There are    24 symmetry adapted basis functions of A   symmetry.
    24 basis functions,   144 primitive gaussians,    24 cartesian basis functions
    13 alpha electrons       13 beta electrons
       nuclear repulsion energy        94.1994557673 Hartrees.



 Warning!  S  atom    9 may be hypervalent but has no d functions.



 IExCor=    0 DFT=F Ex=HF Corr=None ExCW=0 ScaHFX=  1.000000
 ScaDFX=  1.000000  1.000000  1.000000  1.000000 ScalE2=  1.000000  1.000000
 IRadAn=      0 IRanWt=     -1 IRanGd=            0 ICorTp=0 IEmpDi=  4
 Integral buffers will be    131072 words long.
 Regular integral format.
 Two-electron integral symmetry is turned off.
 Leave Link  301 at Sun Apr 10 10:09:07 2016, MaxMem=    33554432 cpu:         0.0
 (Enter /home/dustin/Applications/g09/g09/l302.exe)
 Do NDO integrals.
 NPDir=0 NMtPBC=     1 NCelOv=     1 NCel=       1 NClECP=     1 NCelD=      1
         NCelK=      1 NCelE2=     1 NClLst=     1 CellRange=     0.0.
 One-electron integrals computed using PRISM.
 NBasis=    24 RedAO= F EigKep=  0.00D+00  NBF=    24
 NBsUse=    24 1.00D-04 EigRej=  0.00D+00 NBFU=    24
 Leave Link  302 at Sun Apr 10 10:09:07 2016, MaxMem=    33554432 cpu:         0.0
 (Enter /home/dustin/Applications/g09/g09/l303.exe)
 DipDrv:  MaxL=1.
 Leave Link  303 at Sun Apr 10 10:09:07 2016, MaxMem=    33554432 cpu:         0.0
 (Enter /home/dustin/Applications/g09/g09/l401.exe)
 Initial guess from the checkpoint file:  "best.chk"
 B after Tr=     0.000000    0.000000    0.000000
         Rot=    0.999906   -0.001496    0.000338   -0.013609 Ang=  -1.57 deg.
 Guess basis will be translated and rotated to current coordinates.
 JPrj=0 DoOrth=T DoCkMO=T.
 Leave Link  401 at Sun Apr 10 10:09:07 2016, MaxMem=    33554432 cpu:         0.0
 (Enter /home/dustin/Applications/g09/g09/l502.exe)
 Closed shell SCF:
 Using DIIS extrapolation, IDIIS=  1040.
 Overlap will be assumed to be unity.
 Two-electron integral symmetry not used.
 Keep J ints in memory in canonical form, NReq=888082.
 IVT=       79475 IEndB=       79475 NGot=    33554432 MDV=    33473473
 LenX=    33473473 LenY=    33472456
 Requested convergence on RMS density matrix=1.00D-08 within 128 cycles.
 Requested convergence on MAX density matrix=1.00D-06.
 Requested convergence on             energy=1.00D-06.
 No special actions if energy rises.
 FoFCou: FMM=F IPFlag=           0 FMFlag=           0 FMFlg1=           0
         NFxFlg=           0 DoJE=F BraDBF=F KetDBF=F FulRan=T
         wScrn=  0.000000 ICntrl=     600 IOpCl=  2 I1Cent=           0 NGrid=           0
         NMat0=    1 NMatS0=     54 NMatT0=    0 NMatD0=    1 NMtDS0=    0 NMtDT0=    0
 Symmetry not used in FoFCou.

 Cycle   1  Pass 1  IDiag  1:
 E= 0.441080694591207    
 DIIS: error= 7.09D-03 at cycle   1 NSaved=   1.
 NSaved= 1 IEnMin= 1 EnMin= 0.441080694591207     IErMin= 1 ErrMin= 7.09D-03
 ErrMax= 7.09D-03  0.00D+00 EMaxC= 1.00D-01 BMatC= 3.43D-03 BMatP= 3.43D-03
 IDIUse=3 WtCom= 9.29D-01 WtEn= 7.09D-02
 Coeff-Com:  0.100D+01
 Coeff-En:   0.100D+01
 Coeff:      0.100D+01
 GapD=    2.000 DampG=2.000 DampE=1.000 DampFc=2.0000 IDamp=-1.
 RMSDP=4.07D-03 MaxDP=1.59D-02              OVMax= 0.00D+00

 Cycle   2  Pass 1  IDiag  3:
 E= 0.430844531409377     Delta-E=       -0.010236163182 Rises=F Damp=F
 DIIS: error= 2.45D-03 at cycle   2 NSaved=   2.
 NSaved= 2 IEnMin= 2 EnMin= 0.430844531409377     IErMin= 2 ErrMin= 2.45D-03
 ErrMax= 2.45D-03  0.00D+00 EMaxC= 1.00D-01 BMatC= 3.67D-04 BMatP= 3.43D-03
 IDIUse=3 WtCom= 9.76D-01 WtEn= 2.45D-02
 Coeff-Com: -0.417D+00 0.142D+01
 Coeff-En:   0.000D+00 0.100D+01
 Coeff:     -0.407D+00 0.141D+01
 Gap=     0.354 Goal=   None    Shift=    0.000
 RMSDP=2.33D-03 MaxDP=1.04D-02 DE=-1.02D-02 OVMax= 1.53D-02

 Cycle   3  Pass 1  IDiag  3:
 E= 0.429149134187014     Delta-E=       -0.001695397222 Rises=F Damp=F
 DIIS: error= 6.31D-04 at cycle   3 NSaved=   3.
 NSaved= 3 IEnMin= 3 EnMin= 0.429149134187014     IErMin= 3 ErrMin= 6.31D-04
 ErrMax= 6.31D-04  0.00D+00 EMaxC= 1.00D-01 BMatC= 1.65D-05 BMatP= 3.67D-04
 IDIUse=3 WtCom= 9.94D-01 WtEn= 6.31D-03
 Coeff-Com:  0.246D+00-0.930D+00 0.168D+01
 Coeff-En:   0.000D+00 0.000D+00 0.100D+01
 Coeff:      0.245D+00-0.924D+00 0.168D+01
 Gap=     0.354 Goal=   None    Shift=    0.000
 RMSDP=8.56D-04 MaxDP=4.51D-03 DE=-1.70D-03 OVMax= 7.92D-03

 Cycle   4  Pass 1  IDiag  3:
 E= 0.429014680667294     Delta-E=       -0.000134453520 Rises=F Damp=F
 DIIS: error= 1.10D-04 at cycle   4 NSaved=   4.
 NSaved= 4 IEnMin= 4 EnMin= 0.429014680667294     IErMin= 4 ErrMin= 1.10D-04
 ErrMax= 1.10D-04  0.00D+00 EMaxC= 1.00D-01 BMatC= 7.65D-07 BMatP= 1.65D-05
 IDIUse=3 WtCom= 9.99D-01 WtEn= 1.10D-03
 Coeff-Com: -0.125D+00 0.483D+00-0.101D+01 0.165D+01
 Coeff-En:   0.000D+00 0.000D+00 0.000D+00 0.100D+01
 Coeff:     -0.125D+00 0.483D+00-0.101D+01 0.165D+01
 Gap=     0.354 Goal=   None    Shift=    0.000
 RMSDP=2.23D-04 MaxDP=1.24D-03 DE=-1.34D-04 OVMax= 2.37D-03

 Cycle   5  Pass 1  IDiag  3:
 E= 0.429007502858852     Delta-E=       -0.000007177808 Rises=F Damp=F
 DIIS: error= 1.68D-05 at cycle   5 NSaved=   5.
 NSaved= 5 IEnMin= 5 EnMin= 0.429007502858852     IErMin= 5 ErrMin= 1.68D-05
 ErrMax= 1.68D-05  0.00D+00 EMaxC= 1.00D-01 BMatC= 2.82D-08 BMatP= 7.65D-07
 IDIUse=1 WtCom= 1.00D+00 WtEn= 0.00D+00
 Coeff-Com:  0.494D-01-0.191D+00 0.411D+00-0.788D+00 0.152D+01
 Coeff:      0.494D-01-0.191D+00 0.411D+00-0.788D+00 0.152D+01
 Gap=     0.354 Goal=   None    Shift=    0.000
 RMSDP=3.94D-05 MaxDP=2.11D-04 DE=-7.18D-06 OVMax= 3.92D-04

 Cycle   6  Pass 1  IDiag  3:
 E= 0.429007257738775     Delta-E=       -0.000000245120 Rises=F Damp=F
 DIIS: error= 5.14D-06 at cycle   6 NSaved=   6.
 NSaved= 6 IEnMin= 6 EnMin= 0.429007257738775     IErMin= 6 ErrMin= 5.14D-06
 ErrMax= 5.14D-06  0.00D+00 EMaxC= 1.00D-01 BMatC= 1.32D-09 BMatP= 2.82D-08
 IDIUse=1 WtCom= 1.00D+00 WtEn= 0.00D+00
 Coeff-Com: -0.943D-02 0.367D-01-0.813D-01 0.171D+00-0.495D+00 0.138D+01
 Coeff:     -0.943D-02 0.367D-01-0.813D-01 0.171D+00-0.495D+00 0.138D+01
 Gap=     0.354 Goal=   None    Shift=    0.000
 RMSDP=7.86D-06 MaxDP=4.16D-05 DE=-2.45D-07 OVMax= 7.62D-05

 Cycle   7  Pass 1  IDiag  3:
 E= 0.429007247005814     Delta-E=       -0.000000010733 Rises=F Damp=F
 DIIS: error= 1.67D-06 at cycle   7 NSaved=   7.
 NSaved= 7 IEnMin= 7 EnMin= 0.429007247005814     IErMin= 7 ErrMin= 1.67D-06
 ErrMax= 1.67D-06  0.00D+00 EMaxC= 1.00D-01 BMatC= 8.94D-11 BMatP= 1.32D-09
 IDIUse=1 WtCom= 1.00D+00 WtEn= 0.00D+00
 Coeff-Com:  0.219D-02-0.860D-02 0.196D-01-0.445D-01 0.161D+00-0.649D+00
 Coeff-Com:  0.152D+01
 Coeff:      0.219D-02-0.860D-02 0.196D-01-0.445D-01 0.161D+00-0.649D+00
 Coeff:      0.152D+01
 Gap=     0.354 Goal=   None    Shift=    0.000
 RMSDP=2.03D-06 MaxDP=1.05D-05 DE=-1.07D-08 OVMax= 1.66D-05

 Cycle   8  Pass 1  IDiag  3:
 E= 0.429007246272960     Delta-E=       -0.000000000733 Rises=F Damp=F
 DIIS: error= 4.09D-07 at cycle   8 NSaved=   8.
 NSaved= 8 IEnMin= 8 EnMin= 0.429007246272960     IErMin= 8 ErrMin= 4.09D-07
 ErrMax= 4.09D-07  0.00D+00 EMaxC= 1.00D-01 BMatC= 5.54D-12 BMatP= 8.94D-11
 IDIUse=1 WtCom= 1.00D+00 WtEn= 0.00D+00
 Coeff-Com: -0.488D-03 0.194D-02-0.461D-02 0.117D-01-0.526D-01 0.253D+00
 Coeff-Com: -0.762D+00 0.155D+01
 Coeff:     -0.488D-03 0.194D-02-0.461D-02 0.117D-01-0.526D-01 0.253D+00
 Coeff:     -0.762D+00 0.155D+01
 Gap=     0.354 Goal=   None    Shift=    0.000
 RMSDP=5.39D-07 MaxDP=3.75D-06 DE=-7.33D-10 OVMax= 6.22D-06

 Cycle   9  Pass 1  IDiag  3:
 E= 0.429007246222909     Delta-E=       -0.000000000050 Rises=F Damp=F
 DIIS: error= 1.06D-07 at cycle   9 NSaved=   9.
 NSaved= 9 IEnMin= 9 EnMin= 0.429007246222909     IErMin= 9 ErrMin= 1.06D-07
 ErrMax= 1.06D-07  0.00D+00 EMaxC= 1.00D-01 BMatC= 4.19D-13 BMatP= 5.54D-12
 IDIUse=1 WtCom= 1.00D+00 WtEn= 0.00D+00
 Coeff-Com:  0.130D-03-0.516D-03 0.123D-02-0.312D-02 0.144D-01-0.712D-01
 Coeff-Com:  0.232D+00-0.669D+00 0.150D+01
 Coeff:      0.130D-03-0.516D-03 0.123D-02-0.312D-02 0.144D-01-0.712D-01
 Coeff:      0.232D+00-0.669D+00 0.150D+01
 Gap=     0.354 Goal=   None    Shift=    0.000
 RMSDP=1.59D-07 MaxDP=1.07D-06 DE=-5.01D-11 OVMax= 2.24D-06

 Cycle  10  Pass 1  IDiag  3:
 E= 0.429007246218802     Delta-E=       -0.000000000004 Rises=F Damp=F
 DIIS: error= 2.87D-08 at cycle  10 NSaved=  10.
 NSaved=10 IEnMin=10 EnMin= 0.429007246218802     IErMin=10 ErrMin= 2.87D-08
 ErrMax= 2.87D-08  0.00D+00 EMaxC= 1.00D-01 BMatC= 3.52D-14 BMatP= 4.19D-13
 IDIUse=1 WtCom= 1.00D+00 WtEn= 0.00D+00
 Coeff-Com: -0.276D-05 0.102D-04-0.112D-04-0.367D-04 0.518D-03-0.303D-02
 Coeff-Com:  0.799D-02 0.278D-01-0.386D+00 0.135D+01
 Coeff:     -0.276D-05 0.102D-04-0.112D-04-0.367D-04 0.518D-03-0.303D-02
 Coeff:      0.799D-02 0.278D-01-0.386D+00 0.135D+01
 Gap=     0.354 Goal=   None    Shift=    0.000
 RMSDP=4.79D-08 MaxDP=3.15D-07 DE=-4.11D-12 OVMax= 7.31D-07

 Cycle  11  Pass 1  IDiag  3:
 E= 0.429007246218475     Delta-E=        0.000000000000 Rises=F Damp=F
 DIIS: error= 9.21D-09 at cycle  11 NSaved=  11.
 NSaved=11 IEnMin=11 EnMin= 0.429007246218475     IErMin=11 ErrMin= 9.21D-09
 ErrMax= 9.21D-09  0.00D+00 EMaxC= 1.00D-01 BMatC= 3.61D-15 BMatP= 3.52D-14
 IDIUse=1 WtCom= 1.00D+00 WtEn= 0.00D+00
 Coeff-Com:  0.712D-06-0.144D-05-0.109D-04 0.104D-03-0.983D-03 0.591D-02
 Coeff-Com: -0.201D-01 0.361D-01 0.809D-01-0.705D+00 0.160D+01
 Coeff:      0.712D-06-0.144D-05-0.109D-04 0.104D-03-0.983D-03 0.591D-02
 Coeff:     -0.201D-01 0.361D-01 0.809D-01-0.705D+00 0.160D+01
 Gap=     0.354 Goal=   None    Shift=    0.000
 RMSDP=1.62D-08 MaxDP=1.15D-07 DE=-3.27D-13 OVMax= 2.46D-07

 Cycle  12  Pass 1  IDiag  3:
 E= 0.429007246218347     Delta-E=        0.000000000000 Rises=F Damp=F
 DIIS: error= 2.40D-09 at cycle  12 NSaved=  12.
 NSaved=12 IEnMin=12 EnMin= 0.429007246218347     IErMin=12 ErrMin= 2.40D-09
 ErrMax= 2.40D-09  0.00D+00 EMaxC= 1.00D-01 BMatC= 2.47D-16 BMatP= 3.61D-15
 IDIUse=1 WtCom= 1.00D+00 WtEn= 0.00D+00
 Coeff-Com: -0.157D-05 0.548D-05-0.526D-05-0.287D-04 0.416D-03-0.265D-02
 Coeff-Com:  0.921D-02-0.178D-01-0.256D-01 0.292D+00-0.856D+00 0.160D+01
 Coeff:     -0.157D-05 0.548D-05-0.526D-05-0.287D-04 0.416D-03-0.265D-02
 Coeff:      0.921D-02-0.178D-01-0.256D-01 0.292D+00-0.856D+00 0.160D+01
 Gap=     0.354 Goal=   None    Shift=    0.000
 RMSDP=4.19D-09 MaxDP=2.70D-08 DE=-1.28D-13 OVMax= 5.63D-08

 Cycle  13  Pass 2  IDiag  1:
 SCF Done:  E(RAM1) =  0.429007246218     A.U. after   13 cycles
            NFock= 12  Conv=0.42D-08     -V/T= 1.0302
 KE=-1.418738555972D+01 PE=-1.548762527303D+02 EE= 7.529318976895D+01
 Leave Link  502 at Sun Apr 10 10:09:07 2016, MaxMem=    33554432 cpu:         0.0
 (Enter /home/dustin/Applications/g09/g09/l701.exe)
 Compute integral first derivatives.
 ... and contract with generalized density number  0.
 Leave Link  701 at Sun Apr 10 10:09:07 2016, MaxMem=    33554432 cpu:         0.0
 (Enter /home/dustin/Applications/g09/g09/l702.exe)
 L702 exits ... SP integral derivatives will be done elsewhere.
 Leave Link  702 at Sun Apr 10 10:09:07 2016, MaxMem=    33554432 cpu:         0.0
 (Enter /home/dustin/Applications/g09/g09/l703.exe)
 Compute integral first derivatives, UseDBF=F ICtDFT=           0.
 Integral derivatives from FoFJK, PRISM(SPDF).
 Calling FoFJK, ICntrl=      2127 FMM=F ISym2X=0 I1Cent= 0 IOpClX= 0 NMat=1 NMatS=1 NMatT=0.
 FoFJK:  IHMeth= 8 ICntrl=    2127 DoSepK=F KAlg= 0 I1Cent=   0 FoldK=F
 IRaf=         0 NMat=   1 IRICut=       1 DoRegI=T DoRafI=F ISym2E= 0.
 FoFCou: FMM=F IPFlag=           0 FMFlag=      100000 FMFlg1=         800
         NFxFlg=           0 DoJE=F BraDBF=F KetDBF=F FulRan=T
         wScrn=  0.000000 ICntrl=    2127 IOpCl=  0 I1Cent=           0 NGrid=           0
         NMat0=    1 NMatS0=      1 NMatT0=    0 NMatD0=    1 NMtDS0=    0 NMtDT0=    0
 Symmetry not used in FoFCou.
 Leave Link  703 at Sun Apr 10 10:09:07 2016, MaxMem=    33554432 cpu:         0.0
 (Enter /home/dustin/Applications/g09/g09/l716.exe)
 Dipole        = 2.36538013D-01-3.37774723D-03-6.63090735D-03
 ***** Axes restored to original set *****
 -------------------------------------------------------------------
 Center     Atomic                   Forces (Hartrees/Bohr)
 Number     Number              X              Y              Z
 -------------------------------------------------------------------
      1        6          -0.003052357    0.015901562   -0.003743948
      2        6           0.006544946   -0.020152594   -0.001861610
      3        6           0.001190317    0.039137603   -0.002545135
      4        6           0.015436170   -0.005559509    0.001300004
      5        1          -0.002360948    0.003337857    0.002807368
      6        1           0.000230092   -0.013548903   -0.003949371
      7        1          -0.014392799   -0.001422649   -0.002356818
      8        1           0.010156912   -0.006964093    0.002206404
      9       16          -0.013752333   -0.010729273    0.008143107
 -------------------------------------------------------------------
 Cartesian Forces:  Max     0.039137603 RMS     0.011393269
 Leave Link  716 at Sun Apr 10 10:09:07 2016, MaxMem=    33554432 cpu:         0.0
 (Enter /home/dustin/Applications/g09/g09/l103.exe)

 GradGradGradGradGradGradGradGradGradGradGradGradGradGradGradGradGradGrad
 Berny optimization.
 Using GEDIIS/GDIIS optimizer.
 FormGI is forming the generalized inverse of G from B-inverse, IUseBI=4.
 Internal  Forces:  Max     0.017490335 RMS     0.007122143
 Search for a local minimum.
 Step number   2 out of a maximum of   48
 All quantities printed in internal units (Hartrees-Bohrs-Radians)
 RMS Force = .71221D-02 SwitMx=.10000D-02 MixMth= 1
 Mixed Optimization -- RFO/linear search
 Update second derivatives using D2CorX and points    1    2
 DE= -2.57D-02 DEPred=-3.04D-02 R= 8.46D-01
 TightC=F SS=  1.41D+00  RLast= 3.83D-01 DXNew= 5.0454D-01 1.1477D+00
 Trust test= 8.46D-01 RLast= 3.83D-01 DXMaxT set to 5.05D-01
 ITU=  1  0
 Use linear search instead of GDIIS.
     Eigenvalues ---    0.01068   0.01114   0.01179   0.02040   0.02190
     Eigenvalues ---    0.02598   0.14675   0.15991   0.15998   0.16045
     Eigenvalues ---    0.21878   0.22061   0.27850   0.29606   0.32146
     Eigenvalues ---    0.34616   0.35079   0.35922   0.39724   0.55861
     Eigenvalues ---    0.56766
 RFO step:  Lambda=-1.03099750D-02 EMin= 1.06798780D-02
 Quartic linear search produced a step of  0.06188.
 Iteration  1 RMS(Cart)=  0.06550587 RMS(Int)=  0.00471403
 Iteration  2 RMS(Cart)=  0.00443633 RMS(Int)=  0.00196878
 Iteration  3 RMS(Cart)=  0.00001392 RMS(Int)=  0.00196873
 Iteration  4 RMS(Cart)=  0.00000004 RMS(Int)=  0.00196873
 ITry= 1 IFail=0 DXMaxC= 2.64D-01 DCOld= 1.00D+10 DXMaxT= 5.05D-01 DXLimC= 3.00D+00 Rises=F
 Variable       Old X    -DE/DX   Delta X   Delta X   Delta X     New X
                                 (Linear)    (Quad)   (Total)
    R1        2.57202   0.01677  -0.01310   0.03938   0.02646   2.59849
    R2        2.69214   0.00841  -0.00585   0.02084   0.01522   2.70737
    R3        2.00288   0.01220   0.00145   0.03160   0.03305   2.03593
    R4        2.01843   0.00322  -0.00144   0.00825   0.00680   2.02523
    R5        3.30247   0.00530  -0.00058   0.01645   0.01576   3.31823
    R6        2.56424   0.01220   0.00330   0.02381   0.02712   2.59136
    R7        2.06052  -0.01361  -0.00660  -0.05038  -0.05699   2.00353
    R8        3.26412   0.01749   0.00150   0.05331   0.05458   3.31870
    R9        2.03550  -0.00058  -0.00122  -0.00235  -0.00358   2.03192
    A1        1.95231   0.00487   0.00333   0.02619   0.02681   1.97912
    A2        2.18961  -0.00259  -0.00282  -0.01416  -0.01568   2.17393
    A3        2.14058  -0.00225  -0.00050  -0.01154  -0.01070   2.12989
    A4        2.07588   0.01720   0.00257   0.09969   0.10285   2.17872
    A5        1.96401  -0.00598   0.00160  -0.02485  -0.02706   1.93695
    A6        2.24329  -0.01123  -0.00403  -0.07510  -0.07805   2.16524
    A7        2.18378   0.00527   0.00353   0.02528   0.02901   2.21278
    A8        1.97147  -0.00527  -0.00386  -0.01723  -0.02578   1.94569
    A9        2.12789   0.00002   0.00058  -0.00730  -0.00628   2.12161
   A10        1.96260   0.00039   0.00078   0.00842   0.00616   1.96876
   A11        2.09959   0.00397  -0.00004   0.02108   0.02238   2.12196
   A12        2.22090  -0.00437  -0.00073  -0.02987  -0.02931   2.19159
   A13        1.56482   0.00678  -0.00012   0.03327   0.02760   1.59242
    D1       -3.07276  -0.00061   0.00001  -0.04821  -0.04501  -3.11778
    D2        0.06438  -0.00267  -0.00423  -0.10675  -0.11061  -0.04623
    D3        0.10801  -0.00127  -0.00007  -0.06211  -0.06027   0.04773
    D4       -3.03804  -0.00333  -0.00431  -0.12065  -0.12587   3.11928
    D5        0.02867  -0.00113  -0.00099  -0.01631  -0.01792   0.01075
    D6       -3.09916  -0.00010   0.00080   0.01085   0.01065  -3.08851
    D7        3.13237  -0.00051  -0.00098  -0.00297  -0.00326   3.12911
    D8        0.00454   0.00053   0.00081   0.02420   0.02531   0.02985
    D9       -0.10551   0.00440   0.00633   0.15269   0.15847   0.05296
   D10        3.03110   0.00219   0.00122   0.08776   0.09405   3.12515
   D11        3.04086   0.00189   0.00114   0.04721   0.04656   3.08743
   D12       -0.11566   0.00086  -0.00081   0.01827   0.01715  -0.09851
   D13       -0.11028   0.00495   0.00653   0.13562   0.14027   0.03000
   D14        3.01639   0.00391   0.00458   0.10668   0.11086   3.12725
   D15        0.12248  -0.00495  -0.00802  -0.16201  -0.16974  -0.04726
   D16       -3.02831  -0.00197  -0.00264  -0.07661  -0.08145  -3.10976
         Item               Value     Threshold  Converged?
 Maximum Force            0.017490     0.000450     NO 
 RMS     Force            0.007122     0.000300     NO 
 Maximum Displacement     0.264433     0.001800     NO 
 RMS     Displacement     0.065383     0.001200     NO 
 Predicted change in Energy=-6.498060D-03
 Lowest energy point so far.  Saving SCF results.
 GradGradGradGradGradGradGradGradGradGradGradGradGradGradGradGradGradGrad

 Leave Link  103 at Sun Apr 10 10:09:07 2016, MaxMem=    33554432 cpu:         0.0
 (Enter /home/dustin/Applications/g09/g09/l202.exe)
                          Input orientation:                          
 ---------------------------------------------------------------------
 Center     Atomic      Atomic             Coordinates (Angstroms)
 Number     Number       Type             X           Y           Z
 ---------------------------------------------------------------------
      1          6           0        0.860786   -0.685572   -0.014122
      2          6           0       -0.411203   -1.207891   -0.009881
      3          6           0       -0.366292    1.301817    0.003641
      4          6           0        0.887554    0.746854   -0.014163
      5          1           0        1.812476    1.292752   -0.065846
      6          1           0       -0.603010    2.334085    0.053197
      7          1           0       -0.643317   -2.253936    0.011810
      8          1           0        1.762952   -1.273982   -0.038383
      9         16           0       -1.614605    0.068331    0.069966
 ---------------------------------------------------------------------
                    Distance matrix (angstroms):
                    1          2          3          4          5
     1  C    0.000000
     2  C    1.375060   0.000000
     3  C    2.335755   2.510146   0.000000
     4  C    1.432677   2.346874   1.371288   0.000000
     5  H    2.195941   3.346804   2.179895   1.075247   0.000000
     6  H    3.356421   3.547727   1.060221   2.178445   2.633082
     7  H    2.173192   1.071708   3.566538   3.368826   4.314620
     8  H    1.077366   2.175345   3.342183   2.202427   2.567359
     9  S    2.589015   1.755931   1.756181   2.593891   3.641776
                    6          7          8          9
     6  H    0.000000
     7  H    4.588385   0.000000
     8  H    4.315589   2.598645   0.000000
     9  S    2.481380   2.517878   3.636129   0.000000
 Stoichiometry    C4H4S
 Framework group  C1[X(C4H4S)]
 Deg. of freedom    21
 Full point group                 C1      NOp   1
 RotChk:  IX=2 Diff= 9.08D-02
 Largest Abelian subgroup         C1      NOp   1
 Largest concise Abelian subgroup C1      NOp   1
                         Standard orientation:                         
 ---------------------------------------------------------------------
 Center     Atomic      Atomic             Coordinates (Angstroms)
 Number     Number       Type             X           Y           Z
 ---------------------------------------------------------------------
      1          6           0       -1.274595    0.713474    0.012898
      2          6           0       -0.011737    1.256252   -0.024122
      3          6           0       -0.015986   -1.253889   -0.020866
      4          6           0       -1.278423   -0.719186    0.007042
      5          1           0       -2.195721   -1.279735   -0.015390
      6          1           0        0.238787   -2.282395    0.015671
      7          1           0        0.204217    2.305812   -0.005503
      8          1           0       -2.186362    1.287328    0.022423
      9         16           0        1.213970   -0.000682    0.008318
 ---------------------------------------------------------------------
 Rotational constants (GHZ):      7.8882702      5.2728365      3.1610518
 Leave Link  202 at Sun Apr 10 10:09:07 2016, MaxMem=    33554432 cpu:         0.0
 (Enter /home/dustin/Applications/g09/g09/l301.exe)

 Semi-emprical parameters in input format:
 Method=8 CoreType=1 PeptideFC=0.0114505045 RIJScale=0.5097085656
 ****
 H       
 PQN=1 NValence=1 F0ss=0.4721553327 ZetaOverlap=1.1967899151 U=-0.4178165546
 Beta=-0.2268825074 CoreKO=1.0589197790 KON=0,0,0,1.0589197790 KON=1,0,1,1.0589197790
 KON=0,1,1,1.1338497770 KON=2,1,1,1.0589197790 EISol=-0.4188110042 EHeat=0.0830298228
 Alpha=1.5420711911
 GCore=0.0085277107,1.4001425905,2.3518998584
 GCore=0.0003550160,1.3820364847,3.2944744699
 GCore=-0.0013331749,0.5569399777,3.9678528693
 ****
 C       
 PQN=2,2 NValence=4 F0ss=0.4713999445 F0sp=0.4215147623 F0pp=0.3775130132 F2pp=0.1946535675
 G1sp=0.2620642432
 ZetaOverlap=1.8289129402,1.6851160000
 U=-1.8208872931,-1.4557965594
 Beta=-0.5861407426,-0.3014199899 DDN=0,1,0.8236736000 DDN=1,1,0.7357327041
 CoreKO=1.0543372640 KON=0,0,0,1.1499164562 KON=1,0,1,0.8142463874 KON=0,1,1,1.1847630970
 KON=2,1,1,0.8407984374 EISol=-4.4398989268 EHeat=0.2723305520 Alpha=1.4014062429
 DipHyp=1.6472524267
 GCore=0.0007466651,1.4748244111,3.0235618126
 GCore=0.0030270540,1.3946676127,3.5670991522
 GCore=-0.0014435585,1.4672652968,3.9169159928
 GCore=-0.0000925100,1.3855898444,4.7742848384
 ****
 S       
 PQN=3,3 NValence=6 F0ss=0.4299117232 F0sp=0.3183640731 F0pp=0.3159896537 F2pp=0.3492272603
 G1sp=0.2802194606
 ZetaOverlap=2.2599319466,1.5025669507,0.9900363356
 U=-2.0808039047,-1.8031392230
 Beta=-0.1455396953,-0.2874926072 DDN=0,1,0.9004265000 DDN=1,1,0.8814241665
 CoreKO=1.1097709178 KON=0,0,0,1.1543033468 KON=1,0,1,0.8464368816 KON=0,1,1,1.1215728428
 KON=2,1,1,0.7746001785 EISol=-7.0460287497 EHeat=0.1058151363 Alpha=1.3026480172
 DipHyp=1.8007493954
 GCore=-0.0319045018,1.4127101318,1.4563457902
 GCore=-0.0008126128,1.7658522049,2.8456265567
 GCore=0.0008107998,3.5617377255,3.7967867236
 ****
 
 Standard basis: VSTO-6G (5D, 7F)
 Ernie: Thresh=  0.10000D-02 Tol=  0.10000D-05 Strict=F.
  NNHCO=     0 NNPyr=     0 NCTC=     0               EPep=         0.000000000
    EC=        63.982247993  ECS=         1.644150529   EG=         0.132108360
   EHC=         0.000000000  EAt=       -26.480868474  AtH=         1.527256636
 EPDDG=         0.000000000  ECC=        65.758506883 EAtT=        28.008125109
 There are    24 symmetry adapted cartesian basis functions of A   symmetry.
 There are    24 symmetry adapted basis functions of A   symmetry.
    24 basis functions,   144 primitive gaussians,    24 cartesian basis functions
    13 alpha electrons       13 beta electrons
       nuclear repulsion energy        93.7666319918 Hartrees.
 IExCor=    0 DFT=F Ex=HF Corr=None ExCW=0 ScaHFX=  1.000000
 ScaDFX=  1.000000  1.000000  1.000000  1.000000 ScalE2=  1.000000  1.000000
 IRadAn=      0 IRanWt=     -1 IRanGd=            0 ICorTp=0 IEmpDi=  4
 Integral buffers will be    131072 words long.
 Regular integral format.
 Two-electron integral symmetry is turned off.
 Leave Link  301 at Sun Apr 10 10:09:07 2016, MaxMem=    33554432 cpu:         0.0
 (Enter /home/dustin/Applications/g09/g09/l302.exe)
 Do NDO integrals.
 NPDir=0 NMtPBC=     1 NCelOv=     1 NCel=       1 NClECP=     1 NCelD=      1
         NCelK=      1 NCelE2=     1 NClLst=     1 CellRange=     0.0.
 One-electron integrals computed using PRISM.
 NBasis=    24 RedAO= F EigKep=  0.00D+00  NBF=    24
 NBsUse=    24 1.00D-04 EigRej=  0.00D+00 NBFU=    24
 Leave Link  302 at Sun Apr 10 10:09:07 2016, MaxMem=    33554432 cpu:         0.0
 (Enter /home/dustin/Applications/g09/g09/l303.exe)
 DipDrv:  MaxL=1.
 Leave Link  303 at Sun Apr 10 10:09:07 2016, MaxMem=    33554432 cpu:         0.0
 (Enter /home/dustin/Applications/g09/g09/l401.exe)
 Initial guess from the checkpoint file:  "best.chk"
 B after Tr=     0.000000    0.000000    0.000000
         Rot=    0.999809   -0.000009   -0.000149    0.019558 Ang=  -2.24 deg.
 Guess basis will be translated and rotated to current coordinates.
 JPrj=0 DoOrth=T DoCkMO=T.
 Leave Link  401 at Sun Apr 10 10:09:07 2016, MaxMem=    33554432 cpu:         0.0
 (Enter /home/dustin/Applications/g09/g09/l502.exe)
 Closed shell SCF:
 Using DIIS extrapolation, IDIIS=  1040.
 Overlap will be assumed to be unity.
 Two-electron integral symmetry not used.
 Keep J ints in memory in canonical form, NReq=888082.
 IVT=       79475 IEndB=       79475 NGot=    33554432 MDV=    33473473
 LenX=    33473473 LenY=    33472456
 Requested convergence on RMS density matrix=1.00D-08 within 128 cycles.
 Requested convergence on MAX density matrix=1.00D-06.
 Requested convergence on             energy=1.00D-06.
 No special actions if energy rises.
 FoFCou: FMM=F IPFlag=           0 FMFlag=           0 FMFlg1=           0
         NFxFlg=           0 DoJE=F BraDBF=F KetDBF=F FulRan=T
         wScrn=  0.000000 ICntrl=     600 IOpCl=  2 I1Cent=           0 NGrid=           0
         NMat0=    1 NMatS0=     54 NMatT0=    0 NMatD0=    1 NMtDS0=    0 NMtDT0=    0
 Symmetry not used in FoFCou.

 Cycle   1  Pass 1  IDiag  1:
 E= 0.437444380146317    
 DIIS: error= 8.19D-03 at cycle   1 NSaved=   1.
 NSaved= 1 IEnMin= 1 EnMin= 0.437444380146317     IErMin= 1 ErrMin= 8.19D-03
 ErrMax= 8.19D-03  0.00D+00 EMaxC= 1.00D-01 BMatC= 2.69D-03 BMatP= 2.69D-03
 IDIUse=3 WtCom= 9.18D-01 WtEn= 8.19D-02
 Coeff-Com:  0.100D+01
 Coeff-En:   0.100D+01
 Coeff:      0.100D+01
 GapD=    2.000 DampG=2.000 DampE=1.000 DampFc=2.0000 IDamp=-1.
 RMSDP=4.34D-03 MaxDP=2.34D-02              OVMax= 0.00D+00

 Cycle   2  Pass 1  IDiag  3:
 E= 0.427374131857278     Delta-E=       -0.010070248289 Rises=F Damp=F
 DIIS: error= 3.59D-03 at cycle   2 NSaved=   2.
 NSaved= 2 IEnMin= 2 EnMin= 0.427374131857278     IErMin= 2 ErrMin= 3.59D-03
 ErrMax= 3.59D-03  0.00D+00 EMaxC= 1.00D-01 BMatC= 4.18D-04 BMatP= 2.69D-03
 IDIUse=3 WtCom= 9.64D-01 WtEn= 3.59D-02
 Coeff-Com: -0.510D+00 0.151D+01
 Coeff-En:   0.000D+00 0.100D+01
 Coeff:     -0.492D+00 0.149D+01
 Gap=     0.352 Goal=   None    Shift=    0.000
 RMSDP=3.13D-03 MaxDP=1.62D-02 DE=-1.01D-02 OVMax= 2.44D-02

 Cycle   3  Pass 1  IDiag  3:
 E= 0.424786089986043     Delta-E=       -0.002588041871 Rises=F Damp=F
 DIIS: error= 7.72D-04 at cycle   3 NSaved=   3.
 NSaved= 3 IEnMin= 3 EnMin= 0.424786089986043     IErMin= 3 ErrMin= 7.72D-04
 ErrMax= 7.72D-04  0.00D+00 EMaxC= 1.00D-01 BMatC= 2.78D-05 BMatP= 4.18D-04
 IDIUse=3 WtCom= 9.92D-01 WtEn= 7.72D-03
 Coeff-Com:  0.276D+00-0.989D+00 0.171D+01
 Coeff-En:   0.000D+00 0.000D+00 0.100D+01
 Coeff:      0.274D+00-0.981D+00 0.171D+01
 Gap=     0.352 Goal=   None    Shift=    0.000
 RMSDP=1.24D-03 MaxDP=6.67D-03 DE=-2.59D-03 OVMax= 1.17D-02

 Cycle   4  Pass 1  IDiag  3:
 E= 0.424545298381830     Delta-E=       -0.000240791604 Rises=F Damp=F
 DIIS: error= 9.61D-05 at cycle   4 NSaved=   4.
 NSaved= 4 IEnMin= 4 EnMin= 0.424545298381830     IErMin= 4 ErrMin= 9.61D-05
 ErrMax= 9.61D-05  0.00D+00 EMaxC= 1.00D-01 BMatC= 8.11D-07 BMatP= 2.78D-05
 IDIUse=1 WtCom= 1.00D+00 WtEn= 0.00D+00
 Coeff-Com: -0.148D+00 0.542D+00-0.103D+01 0.164D+01
 Coeff:     -0.148D+00 0.542D+00-0.103D+01 0.164D+01
 Gap=     0.352 Goal=   None    Shift=    0.000
 RMSDP=2.24D-04 MaxDP=1.21D-03 DE=-2.41D-04 OVMax= 2.43D-03

 Cycle   5  Pass 1  IDiag  3:
 E= 0.424537694589006     Delta-E=       -0.000007603793 Rises=F Damp=F
 DIIS: error= 2.04D-05 at cycle   5 NSaved=   5.
 NSaved= 5 IEnMin= 5 EnMin= 0.424537694589006     IErMin= 5 ErrMin= 2.04D-05
 ErrMax= 2.04D-05  0.00D+00 EMaxC= 1.00D-01 BMatC= 3.69D-08 BMatP= 8.11D-07
 IDIUse=1 WtCom= 1.00D+00 WtEn= 0.00D+00
 Coeff-Com:  0.473D-01-0.174D+00 0.339D+00-0.684D+00 0.147D+01
 Coeff:      0.473D-01-0.174D+00 0.339D+00-0.684D+00 0.147D+01
 Gap=     0.352 Goal=   None    Shift=    0.000
 RMSDP=4.63D-05 MaxDP=2.54D-04 DE=-7.60D-06 OVMax= 5.27D-04

 Cycle   6  Pass 1  IDiag  3:
 E= 0.424537372674251     Delta-E=       -0.000000321915 Rises=F Damp=F
 DIIS: error= 5.69D-06 at cycle   6 NSaved=   6.
 NSaved= 6 IEnMin= 6 EnMin= 0.424537372674251     IErMin= 6 ErrMin= 5.69D-06
 ErrMax= 5.69D-06  0.00D+00 EMaxC= 1.00D-01 BMatC= 1.47D-09 BMatP= 3.69D-08
 IDIUse=1 WtCom= 1.00D+00 WtEn= 0.00D+00
 Coeff-Com: -0.112D-01 0.413D-01-0.810D-01 0.177D+00-0.514D+00 0.139D+01
 Coeff:     -0.112D-01 0.413D-01-0.810D-01 0.177D+00-0.514D+00 0.139D+01
 Gap=     0.352 Goal=   None    Shift=    0.000
 RMSDP=7.78D-06 MaxDP=4.70D-05 DE=-3.22D-07 OVMax= 8.21D-05

 Cycle   7  Pass 1  IDiag  3:
 E= 0.424537361420434     Delta-E=       -0.000000011254 Rises=F Damp=F
 DIIS: error= 1.47D-06 at cycle   7 NSaved=   7.
 NSaved= 7 IEnMin= 7 EnMin= 0.424537361420434     IErMin= 7 ErrMin= 1.47D-06
 ErrMax= 1.47D-06  0.00D+00 EMaxC= 1.00D-01 BMatC= 9.02D-11 BMatP= 1.47D-09
 IDIUse=1 WtCom= 1.00D+00 WtEn= 0.00D+00
 Coeff-Com:  0.182D-02-0.678D-02 0.136D-01-0.338D-01 0.126D+00-0.542D+00
 Coeff-Com:  0.144D+01
 Coeff:      0.182D-02-0.678D-02 0.136D-01-0.338D-01 0.126D+00-0.542D+00
 Coeff:      0.144D+01
 Gap=     0.352 Goal=   None    Shift=    0.000
 RMSDP=1.91D-06 MaxDP=1.04D-05 DE=-1.13D-08 OVMax= 1.69D-05

 Cycle   8  Pass 1  IDiag  3:
 E= 0.424537360724415     Delta-E=       -0.000000000696 Rises=F Damp=F
 DIIS: error= 4.12D-07 at cycle   8 NSaved=   8.
 NSaved= 8 IEnMin= 8 EnMin= 0.424537360724415     IErMin= 8 ErrMin= 4.12D-07
 ErrMax= 4.12D-07  0.00D+00 EMaxC= 1.00D-01 BMatC= 5.51D-12 BMatP= 9.02D-11
 IDIUse=1 WtCom= 1.00D+00 WtEn= 0.00D+00
 Coeff-Com: -0.139D-03 0.533D-03-0.119D-02 0.455D-02-0.256D-01 0.155D+00
 Coeff-Com: -0.610D+00 0.148D+01
 Coeff:     -0.139D-03 0.533D-03-0.119D-02 0.455D-02-0.256D-01 0.155D+00
 Coeff:     -0.610D+00 0.148D+01
 Gap=     0.352 Goal=   None    Shift=    0.000
 RMSDP=4.64D-07 MaxDP=2.98D-06 DE=-6.96D-10 OVMax= 3.78D-06

 Cycle   9  Pass 1  IDiag  3:
 E= 0.424537360682749     Delta-E=       -0.000000000042 Rises=F Damp=F
 DIIS: error= 8.88D-08 at cycle   9 NSaved=   9.
 NSaved= 9 IEnMin= 9 EnMin= 0.424537360682749     IErMin= 9 ErrMin= 8.88D-08
 ErrMax= 8.88D-08  0.00D+00 EMaxC= 1.00D-01 BMatC= 3.20D-13 BMatP= 5.51D-12
 IDIUse=1 WtCom= 1.00D+00 WtEn= 0.00D+00
 Coeff-Com: -0.575D-04 0.207D-03-0.372D-03 0.338D-03 0.178D-02-0.237D-01
 Coeff-Com:  0.139D+00-0.551D+00 0.143D+01
 Coeff:     -0.575D-04 0.207D-03-0.372D-03 0.338D-03 0.178D-02-0.237D-01
 Coeff:      0.139D+00-0.551D+00 0.143D+01
 Gap=     0.352 Goal=   None    Shift=    0.000
 RMSDP=1.13D-07 MaxDP=7.41D-07 DE=-4.17D-11 OVMax= 9.17D-07

 Cycle  10  Pass 1  IDiag  3:
 E= 0.424537360680219     Delta-E=       -0.000000000003 Rises=F Damp=F
 DIIS: error= 1.82D-08 at cycle  10 NSaved=  10.
 NSaved=10 IEnMin=10 EnMin= 0.424537360680219     IErMin=10 ErrMin= 1.82D-08
 ErrMax= 1.82D-08  0.00D+00 EMaxC= 1.00D-01 BMatC= 1.66D-14 BMatP= 3.20D-13
 IDIUse=1 WtCom= 1.00D+00 WtEn= 0.00D+00
 Coeff-Com:  0.262D-04-0.963D-04 0.186D-03-0.355D-03 0.748D-03-0.207D-03
 Coeff-Com: -0.147D-01 0.106D+00-0.484D+00 0.139D+01
 Coeff:      0.262D-04-0.963D-04 0.186D-03-0.355D-03 0.748D-03-0.207D-03
 Coeff:     -0.147D-01 0.106D+00-0.484D+00 0.139D+01
 Gap=     0.352 Goal=   None    Shift=    0.000
 RMSDP=2.79D-08 MaxDP=1.51D-07 DE=-2.53D-12 OVMax= 2.03D-07

 Cycle  11  Pass 1  IDiag  3:
 E= 0.424537360679906     Delta-E=        0.000000000000 Rises=F Damp=F
 DIIS: error= 5.54D-09 at cycle  11 NSaved=  11.
 NSaved=11 IEnMin=11 EnMin= 0.424537360679906     IErMin=11 ErrMin= 5.54D-09
 ErrMax= 5.54D-09  0.00D+00 EMaxC= 1.00D-01 BMatC= 1.07D-15 BMatP= 1.66D-14
 IDIUse=1 WtCom= 1.00D+00 WtEn= 0.00D+00
 Coeff-Com: -0.803D-05 0.298D-04-0.592D-04 0.137D-03-0.445D-03 0.154D-02
 Coeff-Com: -0.164D-02-0.148D-01 0.128D+00-0.590D+00 0.148D+01
 Coeff:     -0.803D-05 0.298D-04-0.592D-04 0.137D-03-0.445D-03 0.154D-02
 Coeff:     -0.164D-02-0.148D-01 0.128D+00-0.590D+00 0.148D+01
 Gap=     0.352 Goal=   None    Shift=    0.000
 RMSDP=7.89D-09 MaxDP=4.72D-08 DE=-3.13D-13 OVMax= 7.55D-08

 Cycle  12  Pass 2  IDiag  1:
 SCF Done:  E(RAM1) =  0.424537360680     A.U. after   12 cycles
            NFock= 11  Conv=0.79D-08     -V/T= 1.0300
 KE=-1.414649621271D+01 PE=-1.541388665040D+02 EE= 7.494326808566D+01
 Leave Link  502 at Sun Apr 10 10:09:07 2016, MaxMem=    33554432 cpu:         0.0
 (Enter /home/dustin/Applications/g09/g09/l701.exe)
 Compute integral first derivatives.
 ... and contract with generalized density number  0.
 Leave Link  701 at Sun Apr 10 10:09:07 2016, MaxMem=    33554432 cpu:         0.0
 (Enter /home/dustin/Applications/g09/g09/l702.exe)
 L702 exits ... SP integral derivatives will be done elsewhere.
 Leave Link  702 at Sun Apr 10 10:09:07 2016, MaxMem=    33554432 cpu:         0.0
 (Enter /home/dustin/Applications/g09/g09/l703.exe)
 Compute integral first derivatives, UseDBF=F ICtDFT=           0.
 Integral derivatives from FoFJK, PRISM(SPDF).
 Calling FoFJK, ICntrl=      2127 FMM=F ISym2X=0 I1Cent= 0 IOpClX= 0 NMat=1 NMatS=1 NMatT=0.
 FoFJK:  IHMeth= 8 ICntrl=    2127 DoSepK=F KAlg= 0 I1Cent=   0 FoldK=F
 IRaf=         0 NMat=   1 IRICut=       1 DoRegI=T DoRafI=F ISym2E= 0.
 FoFCou: FMM=F IPFlag=           0 FMFlag=      100000 FMFlg1=         800
         NFxFlg=           0 DoJE=F BraDBF=F KetDBF=F FulRan=T
         wScrn=  0.000000 ICntrl=    2127 IOpCl=  0 I1Cent=           0 NGrid=           0
         NMat0=    1 NMatS0=      1 NMatT0=    0 NMatD0=    1 NMtDS0=    0 NMtDT0=    0
 Symmetry not used in FoFCou.
 Leave Link  703 at Sun Apr 10 10:09:07 2016, MaxMem=    33554432 cpu:         0.0
 (Enter /home/dustin/Applications/g09/g09/l716.exe)
 Dipole        = 1.93046294D-01 7.06149616D-03 7.53833702D-03
 ***** Axes restored to original set *****
 -------------------------------------------------------------------
 Center     Atomic                   Forces (Hartrees/Bohr)
 Number     Number              X              Y              Z
 -------------------------------------------------------------------
      1        6          -0.009933310    0.005420059   -0.004245408
      2        6           0.018951176    0.002835437    0.007380403
      3        6           0.014259984   -0.007934176    0.007847684
      4        6          -0.009274363   -0.009840519   -0.005008307
      5        1          -0.000649232    0.001077832    0.001928647
      6        1          -0.002937710    0.005817527   -0.002551646
      7        1          -0.003961954    0.003665833   -0.001800436
      8        1          -0.001331739    0.000798000    0.000518623
      9       16          -0.005122852   -0.001839993   -0.004069561
 -------------------------------------------------------------------
 Cartesian Forces:  Max     0.018951176 RMS     0.006774352
 Leave Link  716 at Sun Apr 10 10:09:07 2016, MaxMem=    33554432 cpu:         0.0
 (Enter /home/dustin/Applications/g09/g09/l103.exe)

 GradGradGradGradGradGradGradGradGradGradGradGradGradGradGradGradGradGrad
 Berny optimization.
 Using GEDIIS/GDIIS optimizer.
 FormGI is forming the generalized inverse of G from B-inverse, IUseBI=4.
 Internal  Forces:  Max     0.012468995 RMS     0.003724437
 Search for a local minimum.
 Step number   3 out of a maximum of   48
 All quantities printed in internal units (Hartrees-Bohrs-Radians)
 RMS Force = .37244D-02 SwitMx=.10000D-02 MixMth= 1
 Mixed Optimization -- RFO/linear search
 Update second derivatives using D2CorX and points    2    3
 DE= -4.47D-03 DEPred=-6.50D-03 R= 6.88D-01
 TightC=F SS=  1.41D+00  RLast= 4.12D-01 DXNew= 8.4853D-01 1.2374D+00
 Trust test= 6.88D-01 RLast= 4.12D-01 DXMaxT set to 8.49D-01
 ITU=  1  1  0
 Use linear search instead of GDIIS.
     Eigenvalues ---    0.01060   0.01106   0.01317   0.02026   0.02510
     Eigenvalues ---    0.03208   0.11155   0.15963   0.15983   0.16030
     Eigenvalues ---    0.22040   0.22419   0.28703   0.29968   0.31669
     Eigenvalues ---    0.34896   0.35104   0.35933   0.39661   0.56042
     Eigenvalues ---    0.64443
 RFO step:  Lambda=-2.61981411D-03 EMin= 1.06021406D-02
 Quartic linear search produced a step of -0.14065.
 Iteration  1 RMS(Cart)=  0.02593268 RMS(Int)=  0.00260556
 Iteration  2 RMS(Cart)=  0.00145808 RMS(Int)=  0.00218866
 Iteration  3 RMS(Cart)=  0.00000182 RMS(Int)=  0.00218866
[...]
  10        1PX        -0.21259   0.00002   0.00002   0.00005   0.34343
  11        1PY        -0.16320  -0.00009   0.00000  -0.00005   0.30037
  12        1PZ        -0.00001   0.59463   0.00583   0.56331  -0.00003
  13 4   C  1S          0.07904   0.00001  -0.00003  -0.00001  -0.00018
  14        1PX         0.17590   0.00004  -0.00005  -0.00001   0.07515
  15        1PY         0.08448   0.00001   0.00000  -0.00002  -0.03521
  16        1PZ        -0.00006   0.38319  -0.45421  -0.32466   0.00002
  17 5   H  1S         -0.13828  -0.00002   0.00001   0.00000   0.12186
  18 6   H  1S          0.05850   0.00003   0.00000  -0.00002  -0.01658
  19 7   H  1S          0.05844  -0.00001   0.00001  -0.00001  -0.01666
  20 8   H  1S         -0.13823   0.00001  -0.00001   0.00000   0.12178
  21 9   S  1S          0.53770   0.00000  -0.00002  -0.00002  -0.24771
  22        1PX         0.65485   0.00001  -0.00009   0.00004   0.62928
  23        1PY         0.00004   0.00002  -0.00003  -0.00002   0.00014
  24        1PZ         0.00006  -0.00089   0.76583  -0.39307   0.00007
                          16        17        18        19        20
                           V         V         V         V         V
     Eigenvalues --    -0.00670   0.00089   0.09522   0.09827   0.11920
   1 1   C  1S         -0.00983   0.00001  -0.10712   0.07857  -0.12158
   2        1PX         0.01449  -0.00001   0.04772   0.43854   0.16589
   3        1PY         0.13605  -0.00010   0.50995   0.01961  -0.05959
   4        1PZ        -0.00040  -0.59461  -0.00003   0.00000   0.00000
   5 2   C  1S         -0.21825   0.00013   0.12491  -0.17605  -0.29223
   6        1PX        -0.29258   0.00017   0.26847   0.28204  -0.10760
   7        1PY         0.31970  -0.00016   0.15203   0.28931  -0.28658
   8        1PZ         0.00023   0.38264  -0.00001  -0.00002   0.00003
   9 3   C  1S          0.21812  -0.00015  -0.12535  -0.17577  -0.29243
  10        1PX         0.29245  -0.00021  -0.26783   0.28258  -0.10729
  11        1PY         0.31953  -0.00018   0.15140  -0.28968   0.28636
  12        1PZ        -0.00019  -0.38268   0.00004  -0.00005   0.00004
  13 4   C  1S          0.00984   0.00002   0.10733   0.07827  -0.12137
  14        1PX        -0.01449   0.00005  -0.04667   0.43866   0.16640
  15        1PY         0.13605  -0.00008   0.50987  -0.02082   0.05969
  16        1PZ         0.00036   0.59463  -0.00001  -0.00004  -0.00002
  17 5   H  1S          0.11164  -0.00008   0.12402   0.27189   0.24688
  18 6   H  1S          0.12661  -0.00007   0.28554  -0.15601   0.46013
  19 7   H  1S         -0.12662   0.00008  -0.28585  -0.15536   0.46021
  20 8   H  1S         -0.11168   0.00007  -0.12343   0.27212   0.24666
  21 9   S  1S          0.00008   0.00001   0.00004   0.03700   0.03953
  22        1PX        -0.00016  -0.00002  -0.00016  -0.12417  -0.05618
  23        1PY         0.65933  -0.00041  -0.19369   0.00020   0.00001
  24        1PZ         0.00000  -0.00001  -0.00001   0.00000  -0.00001
                          21        22        23        24
                           V         V         V         V
     Eigenvalues --     0.12796   0.14133   0.15557   0.15558
   1 1   C  1S          0.14337  -0.25856  -0.35764   0.45166
   2        1PX         0.42076  -0.20866   0.23779  -0.06596
   3        1PY        -0.24185  -0.21955   0.25485   0.25198
   4        1PZ         0.00001   0.00002  -0.00002   0.00001
   5 2   C  1S         -0.05702   0.38976  -0.12490  -0.23823
   6        1PX         0.22062  -0.21510  -0.06613   0.25175
   7        1PY         0.27880   0.14689  -0.15453  -0.03839
   8        1PZ        -0.00001  -0.00002   0.00001   0.00000
   9 3   C  1S          0.05669  -0.38972   0.00792  -0.26880
  10        1PX        -0.22064   0.21519   0.16975   0.19736
  11        1PY         0.27912   0.14675  -0.12216   0.10207
  12        1PZ         0.00004  -0.00001  -0.00001  -0.00001
  13 4   C  1S         -0.14342   0.25869   0.51933   0.24934
  14        1PX        -0.42061   0.20859  -0.24258   0.04486
  15        1PY        -0.24182  -0.21967   0.11875  -0.33811
  16        1PZ         0.00003  -0.00003  -0.00002  -0.00002
  17 5   H  1S         -0.27240  -0.13298  -0.43771  -0.26019
  18 6   H  1S          0.20008   0.31946  -0.10997   0.19782
  19 7   H  1S         -0.19960  -0.31960   0.18554   0.12979
  20 8   H  1S          0.27257   0.13283   0.27955  -0.42571
  21 9   S  1S          0.00002  -0.00001   0.00067   0.00288
  22        1PX        -0.00004   0.00000  -0.00834  -0.03614
  23        1PY        -0.01119  -0.06092   0.06301  -0.01452
  24        1PZ         0.00000   0.00000   0.00000   0.00000
     Density Matrix:
                           1         2         3         4         5
   1 1   C  1S          1.09631
   2        1PX        -0.01693   0.98112
   3        1PY         0.00485  -0.03141   0.96226
   4        1PZ        -0.00001   0.00001   0.00001   1.08205
   5 2   C  1S          0.32292   0.45384   0.21702  -0.00001   1.10320
   6        1PX        -0.46780  -0.49118  -0.32321   0.00001  -0.00152
   7        1PY        -0.15625  -0.24219   0.03111   0.00005   0.01828
   8        1PZ        -0.00001   0.00002   0.00005   0.82085   0.00000
   9 3   C  1S         -0.03530  -0.02328   0.01391   0.00001  -0.00465
  10        1PX        -0.00431  -0.02601  -0.05274   0.00001   0.03538
  11        1PY        -0.02974  -0.01188  -0.00679   0.00002  -0.01943
  12        1PZ         0.00000  -0.00001   0.00000  -0.08930   0.00000
  13 4   C  1S          0.30251  -0.02432  -0.47581   0.00004  -0.03530
  14        1PX        -0.02428   0.11590   0.03804   0.00002  -0.02327
  15        1PY         0.47579  -0.03811  -0.65019   0.00005  -0.01391
  16        1PZ        -0.00002   0.00001   0.00003   0.49633   0.00001
  17 5   H  1S         -0.02259  -0.00620   0.01736   0.00000   0.04756
  18 6   H  1S          0.05054  -0.00092  -0.07013   0.00001   0.04524
  19 7   H  1S         -0.01999  -0.01949  -0.00876  -0.00001   0.57174
  20 8   H  1S          0.56367  -0.68684   0.42862   0.00000  -0.03287
  21 9   S  1S          0.00158  -0.00829   0.01889  -0.00001   0.13832
  22        1PX         0.03274   0.03219  -0.02359   0.00002  -0.35150
  23        1PY         0.00132  -0.04870  -0.03884   0.00002   0.39124
  24        1PZ         0.00001  -0.00001  -0.00003  -0.25526  -0.00001
                           6         7         8         9        10
   6        1PX         0.94139
   7        1PY         0.02573   0.98813
   8        1PZ        -0.00001   0.00002   1.07246
   9 3   C  1S          0.03539   0.01942   0.00001   1.10321
  10        1PX         0.00970   0.00307  -0.00002  -0.00153   0.94135
  11        1PY        -0.00306   0.03308   0.00003  -0.01830  -0.02574
  12        1PZ         0.00001  -0.00002  -0.34182  -0.00002   0.00001
  13 4   C  1S         -0.00430   0.02974  -0.00001   0.32294  -0.46778
  14        1PX        -0.02599   0.01187  -0.00001   0.45384  -0.49108
  15        1PY         0.05274  -0.00679   0.00001  -0.21708   0.32327
  16        1PZ         0.00002  -0.00002  -0.08927  -0.00005   0.00010
  17 5   H  1S         -0.04907  -0.01603   0.00000  -0.03287   0.00508
  18 6   H  1S          0.05417  -0.04795   0.00001   0.57176   0.18725
  19 7   H  1S          0.18726   0.78405  -0.00005   0.04525   0.05419
  20 8   H  1S          0.00510   0.02869   0.00000   0.04756  -0.04906
  21 9   S  1S          0.15634  -0.14712   0.00002   0.13829   0.15634
  22        1PX        -0.35693   0.41229  -0.00004  -0.35148  -0.35702
  23        1PY         0.48398  -0.32022   0.00003  -0.39118  -0.48399
  24        1PZ        -0.00002   0.00004   0.44288  -0.00004  -0.00002
                          11        12        13        14        15
  11        1PY         0.98811
  12        1PZ        -0.00002   1.07248
  13 4   C  1S          0.15630   0.00007   1.09631
  14        1PX         0.24225   0.00011  -0.01693   0.98114
  15        1PY         0.03106  -0.00003  -0.00484   0.03140   0.96227
  16        1PZ        -0.00008   0.82087   0.00002   0.00002   0.00000
  17 5   H  1S         -0.02870  -0.00001   0.56364  -0.68690  -0.42856
  18 6   H  1S         -0.78403  -0.00007  -0.02000  -0.01950   0.00878
  19 7   H  1S          0.04796   0.00001   0.05053  -0.00092   0.07013
  20 8   H  1S          0.01604   0.00002  -0.02259  -0.00620  -0.01737
  21 9   S  1S          0.14710   0.00002   0.00158  -0.00829  -0.01889
  22        1PX        -0.41228  -0.00003   0.03274   0.03219   0.02357
  23        1PY        -0.32019  -0.00003  -0.00132   0.04870  -0.03884
  24        1PZ        -0.00007   0.44283  -0.00001  -0.00002   0.00000
                          16        17        18        19        20
  16        1PZ         1.08202
  17 5   H  1S          0.00002   0.94251
  18 6   H  1S          0.00000  -0.03677   0.94558
  19 7   H  1S          0.00000  -0.00330  -0.00371   0.94558
  20 8   H  1S          0.00000  -0.03689  -0.00331  -0.03677   0.94251
  21 9   S  1S         -0.00001   0.02280  -0.03409  -0.03409   0.02279
  22        1PX         0.00001  -0.08416   0.04643   0.04642  -0.08414
  23        1PY        -0.00001  -0.07401   0.00672  -0.00672   0.07401
  24        1PZ        -0.25521  -0.00001   0.00000   0.00000  -0.00001
                          21        22        23        24
  21 9   S  1S          1.87140
  22        1PX         0.32560   1.16812
  23        1PY        -0.00004   0.00002   1.03949
  24        1PZ         0.00002  -0.00005  -0.00002   1.69099
    Full Mulliken population analysis:
                           1         2         3         4         5
   1 1   C  1S          1.09631
   2        1PX         0.00000   0.98112
   3        1PY         0.00000   0.00000   0.96226
   4        1PZ         0.00000   0.00000   0.00000   1.08205
   5 2   C  1S          0.00000   0.00000   0.00000   0.00000   1.10320
   6        1PX         0.00000   0.00000   0.00000   0.00000   0.00000
   7        1PY         0.00000   0.00000   0.00000   0.00000   0.00000
   8        1PZ         0.00000   0.00000   0.00000   0.00000   0.00000
   9 3   C  1S          0.00000   0.00000   0.00000   0.00000   0.00000
  10        1PX         0.00000   0.00000   0.00000   0.00000   0.00000
  11        1PY         0.00000   0.00000   0.00000   0.00000   0.00000
  12        1PZ         0.00000   0.00000   0.00000   0.00000   0.00000
  13 4   C  1S          0.00000   0.00000   0.00000   0.00000   0.00000
  14        1PX         0.00000   0.00000   0.00000   0.00000   0.00000
  15        1PY         0.00000   0.00000   0.00000   0.00000   0.00000
  16        1PZ         0.00000   0.00000   0.00000   0.00000   0.00000
  17 5   H  1S          0.00000   0.00000   0.00000   0.00000   0.00000
  18 6   H  1S          0.00000   0.00000   0.00000   0.00000   0.00000
  19 7   H  1S          0.00000   0.00000   0.00000   0.00000   0.00000
  20 8   H  1S          0.00000   0.00000   0.00000   0.00000   0.00000
  21 9   S  1S          0.00000   0.00000   0.00000   0.00000   0.00000
  22        1PX         0.00000   0.00000   0.00000   0.00000   0.00000
  23        1PY         0.00000   0.00000   0.00000   0.00000   0.00000
  24        1PZ         0.00000   0.00000   0.00000   0.00000   0.00000
                           6         7         8         9        10
   6        1PX         0.94139
   7        1PY         0.00000   0.98813
   8        1PZ         0.00000   0.00000   1.07246
   9 3   C  1S          0.00000   0.00000   0.00000   1.10321
  10        1PX         0.00000   0.00000   0.00000   0.00000   0.94135
  11        1PY         0.00000   0.00000   0.00000   0.00000   0.00000
  12        1PZ         0.00000   0.00000   0.00000   0.00000   0.00000
  13 4   C  1S          0.00000   0.00000   0.00000   0.00000   0.00000
  14        1PX         0.00000   0.00000   0.00000   0.00000   0.00000
  15        1PY         0.00000   0.00000   0.00000   0.00000   0.00000
  16        1PZ         0.00000   0.00000   0.00000   0.00000   0.00000
  17 5   H  1S          0.00000   0.00000   0.00000   0.00000   0.00000
  18 6   H  1S          0.00000   0.00000   0.00000   0.00000   0.00000
  19 7   H  1S          0.00000   0.00000   0.00000   0.00000   0.00000
  20 8   H  1S          0.00000   0.00000   0.00000   0.00000   0.00000
  21 9   S  1S          0.00000   0.00000   0.00000   0.00000   0.00000
  22        1PX         0.00000   0.00000   0.00000   0.00000   0.00000
  23        1PY         0.00000   0.00000   0.00000   0.00000   0.00000
  24        1PZ         0.00000   0.00000   0.00000   0.00000   0.00000
                          11        12        13        14        15
  11        1PY         0.98811
  12        1PZ         0.00000   1.07248
  13 4   C  1S          0.00000   0.00000   1.09631
  14        1PX         0.00000   0.00000   0.00000   0.98114
  15        1PY         0.00000   0.00000   0.00000   0.00000   0.96227
  16        1PZ         0.00000   0.00000   0.00000   0.00000   0.00000
  17 5   H  1S          0.00000   0.00000   0.00000   0.00000   0.00000
  18 6   H  1S          0.00000   0.00000   0.00000   0.00000   0.00000
  19 7   H  1S          0.00000   0.00000   0.00000   0.00000   0.00000
  20 8   H  1S          0.00000   0.00000   0.00000   0.00000   0.00000
  21 9   S  1S          0.00000   0.00000   0.00000   0.00000   0.00000
  22        1PX         0.00000   0.00000   0.00000   0.00000   0.00000
  23        1PY         0.00000   0.00000   0.00000   0.00000   0.00000
  24        1PZ         0.00000   0.00000   0.00000   0.00000   0.00000
                          16        17        18        19        20
  16        1PZ         1.08202
  17 5   H  1S          0.00000   0.94251
  18 6   H  1S          0.00000   0.00000   0.94558
  19 7   H  1S          0.00000   0.00000   0.00000   0.94558
  20 8   H  1S          0.00000   0.00000   0.00000   0.00000   0.94251
  21 9   S  1S          0.00000   0.00000   0.00000   0.00000   0.00000
  22        1PX         0.00000   0.00000   0.00000   0.00000   0.00000
  23        1PY         0.00000   0.00000   0.00000   0.00000   0.00000
  24        1PZ         0.00000   0.00000   0.00000   0.00000   0.00000
                          21        22        23        24
  21 9   S  1S          1.87140
  22        1PX         0.00000   1.16812
  23        1PY         0.00000   0.00000   1.03949
  24        1PZ         0.00000   0.00000   0.00000   1.69099
     Gross orbital populations:
                           1
   1 1   C  1S          1.09631
   2        1PX         0.98112
   3        1PY         0.96226
   4        1PZ         1.08205
   5 2   C  1S          1.10320
   6        1PX         0.94139
   7        1PY         0.98813
   8        1PZ         1.07246
   9 3   C  1S          1.10321
  10        1PX         0.94135
  11        1PY         0.98811
  12        1PZ         1.07248
  13 4   C  1S          1.09631
  14        1PX         0.98114
  15        1PY         0.96227
  16        1PZ         1.08202
  17 5   H  1S          0.94251
  18 6   H  1S          0.94558
  19 7   H  1S          0.94558
  20 8   H  1S          0.94251
  21 9   S  1S          1.87140
  22        1PX         1.16812
  23        1PY         1.03949
  24        1PZ         1.69099
          Condensed to atoms (all electrons):
               1          2          3          4          5          6
     1  C    4.121746   0.000000   0.000000   0.000000   0.000000   0.000000
     2  C    0.000000   4.105179   0.000000   0.000000   0.000000   0.000000
     3  C    0.000000   0.000000   4.105156   0.000000   0.000000   0.000000
     4  C    0.000000   0.000000   0.000000   4.121739   0.000000   0.000000
     5  H    0.000000   0.000000   0.000000   0.000000   0.942508   0.000000
     6  H    0.000000   0.000000   0.000000   0.000000   0.000000   0.945576
     7  H    0.000000   0.000000   0.000000   0.000000   0.000000   0.000000
     8  H    0.000000   0.000000   0.000000   0.000000   0.000000   0.000000
     9  S    0.000000   0.000000   0.000000   0.000000   0.000000   0.000000
               7          8          9
     1  C    0.000000   0.000000   0.000000
     2  C    0.000000   0.000000   0.000000
     3  C    0.000000   0.000000   0.000000
     4  C    0.000000   0.000000   0.000000
     5  H    0.000000   0.000000   0.000000
     6  H    0.000000   0.000000   0.000000
     7  H    0.945585   0.000000   0.000000
     8  H    0.000000   0.942513   0.000000
     9  S    0.000000   0.000000   5.769998
 Mulliken charges:
               1
     1  C   -0.121746
     2  C   -0.105179
     3  C   -0.105156
     4  C   -0.121739
     5  H    0.057492
     6  H    0.054424
     7  H    0.054415
     8  H    0.057487
     9  S    0.230002
 Sum of Mulliken charges =   0.00000
 Mulliken charges with hydrogens summed into heavy atoms:
               1
     1  C   -0.064259
     2  C   -0.050764
     3  C   -0.050732
     4  C   -0.064247
     9  S    0.230002
 Charge=              0.0000 electrons
 Dipole moment (field-independent basis, Debye):
    X=              0.4448    Y=             -0.0001    Z=              0.0000  Tot=              0.4448
 N-N= 9.383840484300D+01 E-N=-1.542441130518D+02  KE=-1.415757169605D+01
 Orbital energies and kinetic energies (alpha):
                                 1                 2
   1         O                -1.402499         -1.140739
   2         O                -1.114004         -0.901971
   3         O                -0.934516         -0.735168
   4         O                -0.782769         -0.620006
   5         O                -0.744776         -0.567342
   6         O                -0.676373         -0.500717
   7         O                -0.585763         -0.451115
   8         O                -0.575075         -0.429708
   9         O                -0.565752         -0.424573
  10         O                -0.537801         -0.397084
  11         O                -0.475662         -0.318443
  12         O                -0.413192         -0.316454
  13         O                -0.406050         -0.275465
  14         V                -0.052980         -0.193870
  15         V                -0.025462         -0.141168
  16         V                -0.006703         -0.125308
  17         V                 0.000889         -0.181002
  18         V                 0.095224         -0.131602
  19         V                 0.098271         -0.124105
  20         V                 0.119204         -0.205107
  21         V                 0.127964         -0.117339
  22         V                 0.141328         -0.135789
  23         V                 0.155571         -0.151508
  24         V                 0.155577         -0.144129
 Total kinetic energy from orbitals=-1.415757169605D+01
 Leave Link  601 at Sun Apr 10 10:09:09 2016, MaxMem=    33554432 cpu:         0.0
 (Enter /home/dustin/Applications/g09/g09/l9999.exe)
 1\1\GINC-DUSTIN-DESKTOP\SP\RAM1-Full\STO-3G\C4H4S1\DUSTIN\10-Apr-2016\
 0\\#P AM1(Input,Print) CIS(Singlets,NStates=10) pop(full) geom=Checkpo
 int\\best1\\0,1\C,0,0.8676397103,-0.6862274743,-0.025503087\C,0,-0.391
 3765355,-1.2090003907,0.0122886105\C,0,-0.3568785524,1.2959837443,0.02
 27800303\C,0,0.8872329342,0.7390585587,-0.0194321287\H,0,1.8074033713,
 1.2971574425,-0.0462334709\H,0,-0.6118522194,2.3331457828,0.0356327353
 \H,0,-0.6746237652,-2.2388482769,0.0164638167\H,0,1.7721077444,-1.2691
 377627,-0.0571087677\S,0,-1.6143116878,0.0603253762,0.0573312615\\Vers
 ion=ES64L-G09RevD.01\State=1-A\HF=0.423331\RMSD=6.022e-09\PG=C01 [X(C4
 H4S1)]\\@


 "PERFECTION IS NOT AN ACCIDENT"
         --  EAGLE ELECTRIC MANUFACTURING CO.,INC. NY
 Job cpu time:       0 days  0 hours  0 minutes  0.2 seconds.
 File lengths (MBytes):  RWF=      6 Int=      0 D2E=      0 Chk=      2 Scr=      1
 Normal termination of Gaussian 09 at Sun Apr 10 10:09:09 2016.
