 Entering Gaussian System, Link 0=g09
 Input=best.com
 Output=best.log
 Initial command:
 /opt/g09/g09/l1.exe "/opt/g09/scratch/Gau-5879.inp" -scrdir="/opt/g09/scratch/"
 Entering Link 1 = /opt/g09/g09/l1.exe PID=      5880.
  
 Copyright (c) 1988,1990,1992,1993,1995,1998,2003,2009,2013,
            Gaussian, Inc.  All Rights Reserved.
  
 This is part of the Gaussian(R) 09 program.  It is based on
 the Gaussian(R) 03 system (copyright 2003, Gaussian, Inc.),
 the Gaussian(R) 98 system (copyright 1998, Gaussian, Inc.),
 the Gaussian(R) 94 system (copyright 1995, Gaussian, Inc.),
 the Gaussian 92(TM) system (copyright 1992, Gaussian, Inc.),
 the Gaussian 90(TM) system (copyright 1990, Gaussian, Inc.),
 the Gaussian 88(TM) system (copyright 1988, Gaussian, Inc.),
 the Gaussian 86(TM) system (copyright 1986, Carnegie Mellon
 University), and the Gaussian 82(TM) system (copyright 1983,
 Carnegie Mellon University). Gaussian is a federally registered
 trademark of Gaussian, Inc.
  
 This software contains proprietary and confidential information,
 including trade secrets, belonging to Gaussian, Inc.
  
 This software is provided under written license and may be
 used, copied, transmitted, or stored only in accord with that
 written license.
  
 The following legend is applicable only to US Government
 contracts under FAR:
  
                    RESTRICTED RIGHTS LEGEND
  
 Use, reproduction and disclosure by the US Government is
 subject to restrictions as set forth in subparagraphs (a)
 and (c) of the Commercial Computer Software - Restricted
 Rights clause in FAR 52.227-19.
  
 Gaussian, Inc.
 340 Quinnipiac St., Bldg. 40, Wallingford CT 06492
  
  
 ---------------------------------------------------------------
 Warning -- This program may not be used in any manner that
 competes with the business of Gaussian, Inc. or will provide
 assistance to any competitor of Gaussian, Inc.  The licensee
 of this program is prohibited from giving any competitor of
 Gaussian, Inc. access to this program.  By using this program,
 the user acknowledges that Gaussian, Inc. is engaged in the
 business of creating and licensing software in the field of
 computational chemistry and represents and warrants to the
 licensee that it is not a competitor of Gaussian, Inc. and that
 it will not use this program in any manner prohibited above.
 ---------------------------------------------------------------
  

 Cite this work as:
 Gaussian 09, Revision D.01,
 M. J. Frisch, G. W. Trucks, H. B. Schlegel, G. E. Scuseria, 
 M. A. Robb, J. R. Cheeseman, G. Scalmani, V. Barone, B. Mennucci, 
 G. A. Petersson, H. Nakatsuji, M. Caricato, X. Li, H. P. Hratchian, 
 A. F. Izmaylov, J. Bloino, G. Zheng, J. L. Sonnenberg, M. Hada, 
 M. Ehara, K. Toyota, R. Fukuda, J. Hasegawa, M. Ishida, T. Nakajima, 
 Y. Honda, O. Kitao, H. Nakai, T. Vreven, J. A. Montgomery, Jr., 
 J. E. Peralta, F. Ogliaro, M. Bearpark, J. J. Heyd, E. Brothers, 
 K. N. Kudin, V. N. Staroverov, T. Keith, R. Kobayashi, J. Normand, 
 K. Raghavachari, A. Rendell, J. C. Burant, S. S. Iyengar, J. Tomasi, 
 M. Cossi, N. Rega, J. M. Millam, M. Klene, J. E. Knox, J. B. Cross, 
 V. Bakken, C. Adamo, J. Jaramillo, R. Gomperts, R. E. Stratmann, 
 O. Yazyev, A. J. Austin, R. Cammi, C. Pomelli, J. W. Ochterski, 
 R. L. Martin, K. Morokuma, V. G. Zakrzewski, G. A. Voth, 
 P. Salvador, J. J. Dannenberg, S. Dapprich, A. D. Daniels, 
 O. Farkas, J. B. Foresman, J. V. Ortiz, J. Cioslowski, 
 and D. J. Fox, Gaussian, Inc., Wallingford CT, 2013.
 
 ******************************************
 Gaussian 09:  ES64L-G09RevD.01 24-Apr-2013
                23-Mar-2016 
 ******************************************
 -----------------------
 #P AM1(Input,Print) opt
 -----------------------
 1/14=-1,18=20,19=15,26=1,38=1/1,3;
 2/9=110,12=2,17=6,18=5,40=1/2;
 3/5=2,16=1,25=1,41=700000,71=1,135=100,136=1/1,2,3;
 4/35=1/1;
 5/5=2,35=1,38=5/2;
 6/7=2,8=2,9=2,10=2,28=1/1;
 7//1,2,3,16;
 1/14=-1,18=20,19=15,26=1/3(2);
 2/9=110/2;
 99//99;
 2/9=110/2;
 3/5=2,16=1,25=1,41=700000,71=1,135=20,136=1/1,2,3;
 4/5=5,16=3,35=1/1;
 5/5=2,35=1,38=5/2;
 7//1,2,3,16;
 1/14=-1,18=20,19=15,26=1/3(-5);
 2/9=110/2;
 6/7=2,8=2,9=2,10=2,19=2,28=1/1;
 99/9=1/99;
 Leave Link    1 at Wed Mar 23 16:16:41 2016, MaxMem=           0 cpu:         0.0
 (Enter /opt/g09/g09/l101.exe)
 ----
 best
 ----
 Symbolic Z-matrix:
 Charge =  0 Multiplicity = 1
 6                     0.89825  -0.66905   0.04362 
 6                    -0.40229  -1.23603  -0.08495 
 6                    -0.34765   1.25554   0.09963 
 6                     0.86651   0.73805  -0.04322 
 1                     1.79454   1.37247  -0.03927 
 1                    -0.65465   2.32775   0.22334 
 1                    -0.61015  -2.26562   0.19822 
 1                     1.72247  -1.20985  -0.10341 
 16                   -1.62304   0.05266  -0.14074 
 
 NAtoms=      9 NQM=        9 NQMF=       0 NMMI=      0 NMMIF=      0
                NMic=       0 NMicF=      0.
                    Isotopes and Nuclear Properties:
 (Nuclear quadrupole moments (NQMom) in fm**2, nuclear magnetic moments (NMagM)
  in nuclear magnetons)

  Atom         1           2           3           4           5           6           7           8           9
 IAtWgt=          12          12          12          12           1           1           1           1          32
 AtmWgt=  12.0000000  12.0000000  12.0000000  12.0000000   1.0078250   1.0078250   1.0078250   1.0078250  31.9720718
 NucSpn=           0           0           0           0           1           1           1           1           0
 AtZEff=   0.0000000   0.0000000   0.0000000   0.0000000   0.0000000   0.0000000   0.0000000   0.0000000   0.0000000
 NQMom=    0.0000000   0.0000000   0.0000000   0.0000000   0.0000000   0.0000000   0.0000000   0.0000000   0.0000000
 NMagM=    0.0000000   0.0000000   0.0000000   0.0000000   2.7928460   2.7928460   2.7928460   2.7928460   0.0000000
 AtZNuc=   6.0000000   6.0000000   6.0000000   6.0000000   1.0000000   1.0000000   1.0000000   1.0000000  16.0000000
 Leave Link  101 at Wed Mar 23 16:16:41 2016, MaxMem=    33554432 cpu:         0.0
 (Enter /opt/g09/g09/l103.exe)

 GradGradGradGradGradGradGradGradGradGradGradGradGradGradGradGradGradGrad
 Berny optimization.
 Initialization pass.
                           ----------------------------
                           !    Initial Parameters    !
                           ! (Angstroms and Degrees)  !
 --------------------------                            --------------------------
 ! Name  Definition              Value          Derivative Info.                !
 --------------------------------------------------------------------------------
 ! R1    R(1,2)                  1.4246         estimate D2E/DX2                !
 ! R2    R(1,4)                  1.4101         estimate D2E/DX2                !
 ! R3    R(1,8)                  0.9967         estimate D2E/DX2                !
 ! R4    R(2,7)                  1.0879         estimate D2E/DX2                !
 ! R5    R(2,9)                  1.776          estimate D2E/DX2                !
 ! R6    R(3,4)                  1.3275         estimate D2E/DX2                !
 ! R7    R(3,6)                  1.1221         estimate D2E/DX2                !
 ! R8    R(3,9)                  1.7695         estimate D2E/DX2                !
 ! R9    R(4,5)                  1.1242         estimate D2E/DX2                !
 ! A1    A(2,1,4)              111.7795         estimate D2E/DX2                !
 ! A2    A(2,1,8)              121.7139         estimate D2E/DX2                !
 ! A3    A(4,1,8)              123.4327         estimate D2E/DX2                !
 ! A4    A(1,2,7)              121.8452         estimate D2E/DX2                !
 ! A5    A(1,2,9)              109.9718         estimate D2E/DX2                !
 ! A6    A(7,2,9)              124.3051         estimate D2E/DX2                !
 ! A7    A(4,3,6)              129.3861         estimate D2E/DX2                !
 ! A8    A(4,3,9)              112.3085         estimate D2E/DX2                !
 ! A9    A(6,3,9)              117.8598         estimate D2E/DX2                !
 ! A10   A(1,4,3)              113.7616         estimate D2E/DX2                !
 ! A11   A(1,4,5)              122.979          estimate D2E/DX2                !
 ! A12   A(3,4,5)              122.3207         estimate D2E/DX2                !
 ! A13   A(2,9,3)               89.6316         estimate D2E/DX2                !
 ! D1    D(4,1,2,7)           -164.5563         estimate D2E/DX2                !
 ! D2    D(4,1,2,9)             -5.8641         estimate D2E/DX2                !
 ! D3    D(8,1,2,7)             34.6476         estimate D2E/DX2                !
 ! D4    D(8,1,2,9)           -166.6601         estimate D2E/DX2                !
 ! D5    D(2,1,4,3)             15.3434         estimate D2E/DX2                !
 ! D6    D(2,1,4,5)           -175.526          estimate D2E/DX2                !
 ! D7    D(8,1,4,3)            175.7528         estimate D2E/DX2                !
 ! D8    D(8,1,4,5)            -15.1166         estimate D2E/DX2                !
 ! D9    D(1,2,9,3)             -2.9433         estimate D2E/DX2                !
 ! D10   D(7,2,9,3)            155.1138         estimate D2E/DX2                !
 ! D11   D(6,3,4,1)            170.2466         estimate D2E/DX2                !
 ! D12   D(6,3,4,5)              1.0353         estimate D2E/DX2                !
 ! D13   D(9,3,4,1)            -17.6969         estimate D2E/DX2                !
 ! D14   D(9,3,4,5)            173.0917         estimate D2E/DX2                !
 ! D15   D(4,3,9,2)             11.7664         estimate D2E/DX2                !
 ! D16   D(6,3,9,2)           -175.1726         estimate D2E/DX2                !
 --------------------------------------------------------------------------------
 Trust Radius=3.00D-01 FncErr=1.00D-07 GrdErr=1.00D-07
 Number of steps in this run=     48 maximum allowed number of steps=    100.
 GradGradGradGradGradGradGradGradGradGradGradGradGradGradGradGradGradGrad

 Leave Link  103 at Wed Mar 23 16:16:41 2016, MaxMem=    33554432 cpu:         0.0
 (Enter /opt/g09/g09/l202.exe)
                          Input orientation:                          
 ---------------------------------------------------------------------
 Center     Atomic      Atomic             Coordinates (Angstroms)
 Number     Number       Type             X           Y           Z
 ---------------------------------------------------------------------
      1          6           0        0.898254   -0.669046    0.043619
      2          6           0       -0.402292   -1.236031   -0.084951
      3          6           0       -0.347651    1.255536    0.099625
      4          6           0        0.866508    0.738050   -0.043217
      5          1           0        1.794539    1.372468   -0.039269
      6          1           0       -0.654650    2.327747    0.223337
      7          1           0       -0.610152   -2.265625    0.198217
      8          1           0        1.722468   -1.209847   -0.103408
      9         16           0       -1.623042    0.052663   -0.140742
 ---------------------------------------------------------------------
                    Distance matrix (angstroms):
                    1          2          3          4          5
     1  C    0.000000
     2  C    1.424578   0.000000
     3  C    2.293345   2.498992   0.000000
     4  C    1.410130   2.347039   1.327546   0.000000
     5  H    2.231138   3.410633   2.149870   1.124163   0.000000
     6  H    3.380026   3.585978   1.122136   2.216328   2.641978
     7  H    2.201875   1.087867   3.532308   3.355723   4.367455
     8  H    0.996700   2.125001   3.225636   2.128519   2.584117
     9  S    2.629028   1.775972   1.769549   2.584013   3.664975
                    6          7          8          9
     6  H    0.000000
     7  H    4.593656   0.000000
     8  H    4.274579   2.578131   0.000000
     9  S    2.499269   2.552508   3.575998   0.000000
 Stoichiometry    C4H4S
 Framework group  C1[X(C4H4S)]
 Deg. of freedom    21
 Full point group                 C1      NOp   1
 Largest Abelian subgroup         C1      NOp   1
 Largest concise Abelian subgroup C1      NOp   1
                         Standard orientation:                         
 ---------------------------------------------------------------------
 Center     Atomic      Atomic             Coordinates (Angstroms)
 Number     Number       Type             X           Y           Z
 ---------------------------------------------------------------------
      1          6           0       -1.293921    0.718039    0.047908
      2          6           0        0.017062    1.272932   -0.005354
      3          6           0       -0.072316   -1.222036    0.104666
      4          6           0       -1.273164   -0.686312   -0.077929
      5          1           0       -2.207082   -1.309508   -0.134218
      6          1           0        0.217358   -2.300895    0.211169
      7          1           0        0.222713    2.291551    0.316481
      8          1           0       -2.104813    1.272548   -0.120571
      9         16           0        1.225366   -0.028090   -0.043038
 ---------------------------------------------------------------------
 Rotational constants (GHZ):      7.9361274      5.1895466      3.1559132
 Leave Link  202 at Wed Mar 23 16:16:41 2016, MaxMem=    33554432 cpu:         0.0
 (Enter /opt/g09/g09/l301.exe)

 Semi-emprical parameters in input format:
 Method=8 CoreType=1 PeptideFC=0.0114505045 RIJScale=0.5291772086
 ****
 H       
 PQN=1 NValence=1 F0ss=0.4721553327 ZetaOverlap=1.1880780000 U=-0.4188110042
 Beta=-0.2268825074 CoreKO=1.0589197790 KON=0,0,0,1.1015293449 KON=1,0,1,1.0589197790
 KON=0,1,1,1.0589197790 KON=2,1,1,1.0589197790 EISol=-0.4188110042 EHeat=0.0830298228
 Alpha=1.5252601686
 GCore=0.0089595230,1.3828309232,2.2676713595
 GCore=0.0003499727,1.4001425905,3.5057056867
 GCore=-0.0012733648,0.5600570362,3.9696929775
 ****
 C       
 PQN=2,2 NValence=4 F0ss=0.4552189101 F0sp=0.4215147623 F0pp=0.3768030831 F2pp=0.1898715146
 G1sp=0.2679025821
 ZetaOverlap=1.8086650000,1.7495796022
 U=-1.7791527374,-1.4557965594
 Beta=-0.5775444233,-0.2921651104 DDN=0,1,0.8236736000 DDN=1,1,0.7268015000
 CoreKO=1.2867818912 KON=0,0,0,1.1124284736 KON=1,0,1,0.8219701441 KON=0,1,1,1.1124284736
 KON=2,1,1,0.7783928119 EISol=-4.4398989268 EHeat=0.2723305520 Alpha=1.3342128432
 DipHyp=1.6472524267
 GCore=0.0007885612,1.4001425905,2.9427076894
 GCore=0.0031892455,1.4001425905,3.4959933458
 GCore=-0.0013931594,1.4001425905,3.8739385724
 GCore=-0.0000875022,1.4001425905,5.0077742521
 ****
 S       
 PQN=3,3 NValence=6 F0ss=0.4826621401 F0sp=0.3183640731 F0pp=0.3136271218 F2pp=0.3456917167
 G1sp=0.2791629797
 ZetaOverlap=2.4973234255,1.6672630000,1.0000000000
 U=-2.0834683120,-1.7903186861
 Beta=-0.1440781557,-0.2905136336 DDN=0,1,0.9004265000 DDN=1,1,0.9874147874
 CoreKO=1.1543033468 KON=0,0,0,1.0475866855 KON=1,0,1,0.8480974288 KON=0,1,1,1.1543033468
 KON=2,1,1,0.7746001785 EISol=-7.0460287497 EHeat=0.1058151363 Alpha=1.3026480172
 DipHyp=1.8007493954
 GCore=-0.0353616377,1.3427001307,1.4563457902
 GCore=-0.0008238398,1.6425719595,2.8408498620
 GCore=0.0008565489,3.7964407093,3.7967867236
 ****
 
 Standard basis: VSTO-6G (5D, 7F)
 Ernie: Thresh=  0.10000D-02 Tol=  0.10000D-05 Strict=F.
  NNHCO=     0 NNPyr=     0 NCTC=     0               EPep=         0.000000000
    EC=        61.218699811  ECS=         1.758934010   EG=         0.153183267
   EHC=         0.000000000  EAt=       -26.480868474  AtH=         1.527256636
 EPDDG=         0.000000000  ECC=        63.130817087 EAtT=        28.008125109
 There are    24 symmetry adapted cartesian basis functions of A   symmetry.
 There are    24 symmetry adapted basis functions of A   symmetry.
    24 basis functions,   144 primitive gaussians,    24 cartesian basis functions
    13 alpha electrons       13 beta electrons
       nuclear repulsion energy        91.1389421967 Hartrees.
 IExCor=    0 DFT=F Ex=HF Corr=None ExCW=0 ScaHFX=  1.000000
 ScaDFX=  1.000000  1.000000  1.000000  1.000000 ScalE2=  1.000000  1.000000
 IRadAn=      0 IRanWt=     -1 IRanGd=            0 ICorTp=0 IEmpDi=  4
 Integral buffers will be    131072 words long.
 Regular integral format.
 Two-electron integral symmetry is turned off.
 Leave Link  301 at Wed Mar 23 16:16:41 2016, MaxMem=    33554432 cpu:         0.0
 (Enter /opt/g09/g09/l302.exe)
 Do NDO integrals.
 NPDir=0 NMtPBC=     1 NCelOv=     1 NCel=       1 NClECP=     1 NCelD=      1
         NCelK=      1 NCelE2=     1 NClLst=     1 CellRange=     0.0.
 One-electron integrals computed using PRISM.
 NBasis=    24 RedAO= F EigKep=  0.00D+00  NBF=    24
 NBsUse=    24 1.00D-04 EigRej=  0.00D+00 NBFU=    24
 Leave Link  302 at Wed Mar 23 16:16:41 2016, MaxMem=    33554432 cpu:         0.0
 (Enter /opt/g09/g09/l303.exe)
 DipDrv:  MaxL=1.
 Leave Link  303 at Wed Mar 23 16:16:41 2016, MaxMem=    33554432 cpu:         0.0
 (Enter /opt/g09/g09/l401.exe)
 Simple Huckel Guess.
 JPrj=0 DoOrth=F DoCkMO=F.
 Leave Link  401 at Wed Mar 23 16:16:41 2016, MaxMem=    33554432 cpu:         0.0
 (Enter /opt/g09/g09/l502.exe)
 Closed shell SCF:
 Using DIIS extrapolation, IDIIS=  1040.
 Overlap will be assumed to be unity.
 Two-electron integral symmetry not used.
 Keep J ints in memory in canonical form, NReq=888082.
 IVT=       79475 IEndB=       79475 NGot=    33554432 MDV=    33473473
 LenX=    33473473 LenY=    33472456
 Requested convergence on RMS density matrix=1.00D-08 within 128 cycles.
 Requested convergence on MAX density matrix=1.00D-06.
 Requested convergence on             energy=1.00D-06.
 No special actions if energy rises.
 FoFCou: FMM=F IPFlag=           0 FMFlag=           0 FMFlg1=           0
         NFxFlg=           0 DoJE=F BraDBF=F KetDBF=F FulRan=T
         wScrn=  0.000000 ICntrl=     600 IOpCl=  2 I1Cent=           0 NGrid=           0
         NMat0=    1 NMatS0=     54 NMatT0=    0 NMatD0=    1 NMtDS0=    0 NMtDT0=    0
 Symmetry not used in FoFCou.

 Cycle   1  Pass 1  IDiag  1:
 E=  1.10294283381116    
 DIIS: error= 2.84D-02 at cycle   1 NSaved=   1.
 NSaved= 1 IEnMin= 1 EnMin=  1.10294283381116     IErMin= 1 ErrMin= 2.84D-02
 ErrMax= 2.84D-02  0.00D+00 EMaxC= 1.00D-01 BMatC= 3.04D-02 BMatP= 3.04D-02
 IDIUse=3 WtCom= 7.16D-01 WtEn= 2.84D-01
 Coeff-Com:  0.100D+01
 Coeff-En:   0.100D+01
 Coeff:      0.100D+01
 GapD=    2.000 DampG=2.000 DampE=0.500 DampFc=1.0000 IDamp=-1.
 RMSDP=1.44D-02 MaxDP=1.26D-01              OVMax= 0.00D+00

 Cycle   2  Pass 1  IDiag  1:
 E=  1.00107020359714     Delta-E=       -0.101872630214 Rises=F Damp=F
 DIIS: error= 9.19D-03 at cycle   2 NSaved=   2.
 NSaved= 2 IEnMin= 2 EnMin=  1.00107020359714     IErMin= 2 ErrMin= 9.19D-03
 ErrMax= 9.19D-03  0.00D+00 EMaxC= 1.00D-01 BMatC= 2.69D-03 BMatP= 3.04D-02
 IDIUse=3 WtCom= 9.08D-01 WtEn= 9.19D-02
 Coeff-Com: -0.359D+00 0.136D+01
 Coeff-En:   0.000D+00 0.100D+01
 Coeff:     -0.326D+00 0.133D+01
 RMSDP=6.05D-03 MaxDP=6.39D-02 DE=-1.02D-01 OVMax= 0.00D+00

 Cycle   3  Pass 1  IDiag  3:
 E= 0.989581935823679     Delta-E=       -0.011488267773 Rises=F Damp=F
 DIIS: error= 1.53D-03 at cycle   3 NSaved=   3.
 NSaved= 3 IEnMin= 3 EnMin= 0.989581935823679     IErMin= 3 ErrMin= 1.53D-03
 ErrMax= 1.53D-03  0.00D+00 EMaxC= 1.00D-01 BMatC= 9.55D-05 BMatP= 2.69D-03
 IDIUse=3 WtCom= 9.85D-01 WtEn= 1.53D-02
 Coeff-Com:  0.128D+00-0.548D+00 0.142D+01
 Coeff-En:   0.000D+00 0.000D+00 0.100D+01
 Coeff:      0.126D+00-0.539D+00 0.141D+01
 Gap=     0.331 Goal=   None    Shift=    0.000
 RMSDP=1.67D-03 MaxDP=1.45D-02 DE=-1.15D-02 OVMax= 1.62D-02

 Cycle   4  Pass 1  IDiag  3:
 E= 0.988901089523964     Delta-E=       -0.000680846300 Rises=F Damp=F
 DIIS: error= 4.68D-04 at cycle   4 NSaved=   4.
 NSaved= 4 IEnMin= 4 EnMin= 0.988901089523964     IErMin= 4 ErrMin= 4.68D-04
 ErrMax= 4.68D-04  0.00D+00 EMaxC= 1.00D-01 BMatC= 9.02D-06 BMatP= 9.55D-05
 IDIUse=3 WtCom= 9.95D-01 WtEn= 4.68D-03
 Coeff-Com: -0.909D-02 0.414D-01-0.378D+00 0.135D+01
 Coeff-En:   0.000D+00 0.000D+00 0.000D+00 0.100D+01
 Coeff:     -0.905D-02 0.413D-01-0.376D+00 0.134D+01
 Gap=     0.331 Goal=   None    Shift=    0.000
 RMSDP=6.78D-04 MaxDP=5.11D-03 DE=-6.81D-04 OVMax= 7.62D-03

 Cycle   5  Pass 1  IDiag  3:
 E= 0.988813906517848     Delta-E=       -0.000087183006 Rises=F Damp=F
 DIIS: error= 2.62D-04 at cycle   5 NSaved=   5.
 NSaved= 5 IEnMin= 5 EnMin= 0.988813906517848     IErMin= 5 ErrMin= 2.62D-04
 ErrMax= 2.62D-04  0.00D+00 EMaxC= 1.00D-01 BMatC= 1.24D-06 BMatP= 9.02D-06
 IDIUse=3 WtCom= 9.97D-01 WtEn= 2.62D-03
 Coeff-Com: -0.326D-03 0.320D-02 0.174D+00-0.102D+01 0.184D+01
 Coeff-En:   0.000D+00 0.000D+00 0.000D+00 0.000D+00 0.100D+01
 Coeff:     -0.325D-03 0.319D-02 0.174D+00-0.102D+01 0.184D+01
 Gap=     0.331 Goal=   None    Shift=    0.000
 RMSDP=3.47D-04 MaxDP=2.78D-03 DE=-8.72D-05 OVMax= 4.01D-03

 Cycle   6  Pass 1  IDiag  3:
 E= 0.988799357819332     Delta-E=       -0.000014548699 Rises=F Damp=F
 DIIS: error= 6.53D-05 at cycle   6 NSaved=   6.
 NSaved= 6 IEnMin= 6 EnMin= 0.988799357819332     IErMin= 6 ErrMin= 6.53D-05
 ErrMax= 6.53D-05  0.00D+00 EMaxC= 1.00D-01 BMatC= 5.61D-08 BMatP= 1.24D-06
 IDIUse=1 WtCom= 1.00D+00 WtEn= 0.00D+00
 Coeff-Com:  0.143D-03-0.261D-02-0.706D-01 0.460D+00-0.988D+00 0.160D+01
 Coeff:      0.143D-03-0.261D-02-0.706D-01 0.460D+00-0.988D+00 0.160D+01
 Gap=     0.331 Goal=   None    Shift=    0.000
 RMSDP=7.20D-05 MaxDP=6.67D-04 DE=-1.45D-05 OVMax= 7.75D-04

 Cycle   7  Pass 1  IDiag  3:
 E= 0.988798746079283     Delta-E=       -0.000000611740 Rises=F Damp=F
 DIIS: error= 1.09D-05 at cycle   7 NSaved=   7.
 NSaved= 7 IEnMin= 7 EnMin= 0.988798746079283     IErMin= 7 ErrMin= 1.09D-05
 ErrMax= 1.09D-05  0.00D+00 EMaxC= 1.00D-01 BMatC= 2.64D-09 BMatP= 5.61D-08
 IDIUse=1 WtCom= 1.00D+00 WtEn= 0.00D+00
 Coeff-Com: -0.106D-03 0.151D-02 0.332D-01-0.223D+00 0.491D+00-0.912D+00
 Coeff-Com:  0.161D+01
 Coeff:     -0.106D-03 0.151D-02 0.332D-01-0.223D+00 0.491D+00-0.912D+00
 Coeff:      0.161D+01
 Gap=     0.331 Goal=   None    Shift=    0.000
 RMSDP=1.31D-05 MaxDP=1.15D-04 DE=-6.12D-07 OVMax= 1.29D-04

 Cycle   8  Pass 1  IDiag  3:
 E= 0.988798722105599     Delta-E=       -0.000000023974 Rises=F Damp=F
 DIIS: error= 1.63D-06 at cycle   8 NSaved=   8.
 NSaved= 8 IEnMin= 8 EnMin= 0.988798722105599     IErMin= 8 ErrMin= 1.63D-06
 ErrMax= 1.63D-06  0.00D+00 EMaxC= 1.00D-01 BMatC= 1.36D-10 BMatP= 2.64D-09
 IDIUse=1 WtCom= 1.00D+00 WtEn= 0.00D+00
 Coeff-Com:  0.756D-04-0.808D-03-0.135D-01 0.937D-01-0.208D+00 0.397D+00
 Coeff-Com: -0.844D+00 0.158D+01
 Coeff:      0.756D-04-0.808D-03-0.135D-01 0.937D-01-0.208D+00 0.397D+00
 Coeff:     -0.844D+00 0.158D+01
 Gap=     0.331 Goal=   None    Shift=    0.000
 RMSDP=2.75D-06 MaxDP=1.94D-05 DE=-2.40D-08 OVMax= 2.88D-05

 Cycle   9  Pass 1  IDiag  3:
 E= 0.988798720997551     Delta-E=       -0.000000001108 Rises=F Damp=F
 DIIS: error= 2.43D-07 at cycle   9 NSaved=   9.
 NSaved= 9 IEnMin= 9 EnMin= 0.988798720997551     IErMin= 9 ErrMin= 2.43D-07
 ErrMax= 2.43D-07  0.00D+00 EMaxC= 1.00D-01 BMatC= 4.86D-12 BMatP= 1.36D-10
 IDIUse=1 WtCom= 1.00D+00 WtEn= 0.00D+00
 Coeff-Com: -0.278D-04 0.235D-03 0.269D-02-0.198D-01 0.451D-01-0.891D-01
 Coeff-Com:  0.204D+00-0.508D+00 0.137D+01
 Coeff:     -0.278D-04 0.235D-03 0.269D-02-0.198D-01 0.451D-01-0.891D-01
 Coeff:      0.204D+00-0.508D+00 0.137D+01
 Gap=     0.331 Goal=   None    Shift=    0.000
 RMSDP=4.51D-07 MaxDP=1.96D-06 DE=-1.11D-09 OVMax= 4.36D-06

 Cycle  10  Pass 1  IDiag  3:
 E= 0.988798720960219     Delta-E=       -0.000000000037 Rises=F Damp=F
 DIIS: error= 8.36D-08 at cycle  10 NSaved=  10.
 NSaved=10 IEnMin=10 EnMin= 0.988798720960219     IErMin=10 ErrMin= 8.36D-08
 ErrMax= 8.36D-08  0.00D+00 EMaxC= 1.00D-01 BMatC= 3.54D-13 BMatP= 4.86D-12
 IDIUse=1 WtCom= 1.00D+00 WtEn= 0.00D+00
 Coeff-Com:  0.682D-05-0.478D-04-0.234D-03 0.218D-02-0.534D-02 0.118D-01
 Coeff-Com: -0.305D-01 0.103D+00-0.506D+00 0.143D+01
 Coeff:      0.682D-05-0.478D-04-0.234D-03 0.218D-02-0.534D-02 0.118D-01
 Coeff:     -0.305D-01 0.103D+00-0.506D+00 0.143D+01
 Gap=     0.331 Goal=   None    Shift=    0.000
 RMSDP=1.25D-07 MaxDP=8.08D-07 DE=-3.73D-11 OVMax= 1.36D-06

 Cycle  11  Pass 1  IDiag  3:
 E= 0.988798720957320     Delta-E=       -0.000000000003 Rises=F Damp=F
 DIIS: error= 2.55D-08 at cycle  11 NSaved=  11.
 NSaved=11 IEnMin=11 EnMin= 0.988798720957320     IErMin=11 ErrMin= 2.55D-08
 ErrMax= 2.55D-08  0.00D+00 EMaxC= 1.00D-01 BMatC= 3.42D-14 BMatP= 3.54D-13
 IDIUse=1 WtCom= 1.00D+00 WtEn= 0.00D+00
 Coeff-Com: -0.214D-05 0.148D-04 0.424D-05-0.286D-03 0.876D-03-0.255D-02
 Coeff-Com:  0.807D-02-0.365D-01 0.244D+00-0.949D+00 0.174D+01
 Coeff:     -0.214D-05 0.148D-04 0.424D-05-0.286D-03 0.876D-03-0.255D-02
 Coeff:      0.807D-02-0.365D-01 0.244D+00-0.949D+00 0.174D+01
 Gap=     0.331 Goal=   None    Shift=    0.000
 RMSDP=4.75D-08 MaxDP=3.11D-07 DE=-2.90D-12 OVMax= 5.18D-07

 Cycle  12  Pass 1  IDiag  3:
 E= 0.988798720956979     Delta-E=        0.000000000000 Rises=F Damp=F
 DIIS: error= 3.23D-09 at cycle  12 NSaved=  12.
 NSaved=12 IEnMin=12 EnMin= 0.988798720956979     IErMin=12 ErrMin= 3.23D-09
 ErrMax= 3.23D-09  0.00D+00 EMaxC= 1.00D-01 BMatC= 9.36D-16 BMatP= 3.42D-14
 IDIUse=1 WtCom= 1.00D+00 WtEn= 0.00D+00
 Coeff-Com:  0.492D-06-0.328D-05 0.140D-04-0.222D-04-0.206D-04 0.318D-03
 Coeff-Com: -0.155D-02 0.971D-02-0.773D-01 0.328D+00-0.718D+00 0.146D+01
 Coeff:      0.492D-06-0.328D-05 0.140D-04-0.222D-04-0.206D-04 0.318D-03
 Coeff:     -0.155D-02 0.971D-02-0.773D-01 0.328D+00-0.718D+00 0.146D+01
 Gap=     0.331 Goal=   None    Shift=    0.000
 RMSDP=6.75D-09 MaxDP=4.01D-08 DE=-3.41D-13 OVMax= 6.85D-08

 Cycle  13  Pass 2  IDiag  1:
 SCF Done:  E(RAM1) =  0.988798720957     A.U. after   13 cycles
            NFock= 12  Conv=0.68D-08     -V/T= 1.0728
 KE=-1.358997113569D+01 PE=-1.523898158451D+02 EE= 7.582964350503D+01
 Leave Link  502 at Wed Mar 23 16:16:41 2016, MaxMem=    33554432 cpu:         0.0
 (Enter /opt/g09/g09/l601.exe)
 Copying SCF densities to generalized density rwf, IOpCl= 0 IROHF=0.

 **********************************************************************

            Population analysis using the SCF density.

 **********************************************************************

 Orbital symmetries:
       Occupied  (A) (A) (A) (A) (A) (A) (A) (A) (A) (A) (A) (A)
                 (A)
       Virtual   (A) (A) (A) (A) (A) (A) (A) (A) (A) (A) (A)
 The electronic state is 1-A.
 Alpha  occ. eigenvalues --   -1.17402  -0.90942  -0.75886  -0.63106  -0.57943
 Alpha  occ. eigenvalues --   -0.50980  -0.43625  -0.42611  -0.41095  -0.40033
 Alpha  occ. eigenvalues --   -0.35839  -0.28931  -0.27633
 Alpha virt. eigenvalues --    0.05433   0.11647   0.13001   0.13128   0.22659
 Alpha virt. eigenvalues --    0.23715   0.24286   0.27257   0.29634   0.33115
 Alpha virt. eigenvalues --    0.36374
          Condensed to atoms (all electrons):
               1          2          3          4          5          6
     1  C    4.131491   0.000000   0.000000   0.000000   0.000000   0.000000
     2  C    0.000000   4.448930   0.000000   0.000000   0.000000   0.000000
     3  C    0.000000   0.000000   4.419240   0.000000   0.000000   0.000000
     4  C    0.000000   0.000000   0.000000   4.101912   0.000000   0.000000
     5  H    0.000000   0.000000   0.000000   0.000000   0.847135   0.000000
     6  H    0.000000   0.000000   0.000000   0.000000   0.000000   0.819880
     7  H    0.000000   0.000000   0.000000   0.000000   0.000000   0.000000
     8  H    0.000000   0.000000   0.000000   0.000000   0.000000   0.000000
     9  S    0.000000   0.000000   0.000000   0.000000   0.000000   0.000000
               7          8          9
     1  C    0.000000   0.000000   0.000000
     2  C    0.000000   0.000000   0.000000
     3  C    0.000000   0.000000   0.000000
     4  C    0.000000   0.000000   0.000000
     5  H    0.000000   0.000000   0.000000
     6  H    0.000000   0.000000   0.000000
     7  H    0.808801   0.000000   0.000000
     8  H    0.000000   0.829511   0.000000
     9  S    0.000000   0.000000   5.593100
 Mulliken charges:
               1
     1  C   -0.131491
     2  C   -0.448930
     3  C   -0.419240
     4  C   -0.101912
     5  H    0.152865
     6  H    0.180120
     7  H    0.191199
     8  H    0.170489
     9  S    0.406900
 Sum of Mulliken charges =   0.00000
 Mulliken charges with hydrogens summed into heavy atoms:
               1
     1  C    0.038998
     2  C   -0.257731
     3  C   -0.239120
     4  C    0.050953
     9  S    0.406900
 Charge=              0.0000 electrons
 Dipole moment (field-independent basis, Debye):
    X=             -0.6650    Y=             -0.2327    Z=              0.1162  Tot=              0.7141
 N-N= 9.113894219667D+01 E-N=-1.523898158282D+02  KE=-1.358997113569D+01
 Leave Link  601 at Wed Mar 23 16:16:41 2016, MaxMem=    33554432 cpu:         0.0
 (Enter /opt/g09/g09/l701.exe)
 Compute integral first derivatives.
 ... and contract with generalized density number  0.
 Leave Link  701 at Wed Mar 23 16:16:41 2016, MaxMem=    33554432 cpu:         0.0
 (Enter /opt/g09/g09/l702.exe)
 L702 exits ... SP integral derivatives will be done elsewhere.
 Leave Link  702 at Wed Mar 23 16:16:41 2016, MaxMem=    33554432 cpu:         0.0
 (Enter /opt/g09/g09/l703.exe)
 Compute integral first derivatives, UseDBF=F ICtDFT=           0.
 Integral derivatives from FoFJK, PRISM(SPDF).
 Calling FoFJK, ICntrl=      2127 FMM=F ISym2X=0 I1Cent= 0 IOpClX= 0 NMat=1 NMatS=1 NMatT=0.
 FoFJK:  IHMeth= 8 ICntrl=    2127 DoSepK=F KAlg= 0 I1Cent=   0 FoldK=F
 IRaf=         0 NMat=   1 IRICut=       1 DoRegI=T DoRafI=F ISym2E= 0.
 FoFCou: FMM=F IPFlag=           0 FMFlag=      100000 FMFlg1=         800
         NFxFlg=           0 DoJE=F BraDBF=F KetDBF=F FulRan=T
         wScrn=  0.000000 ICntrl=    2127 IOpCl=  0 I1Cent=           0 NGrid=           0
         NMat0=    1 NMatS0=      1 NMatT0=    0 NMatD0=    1 NMtDS0=    0 NMtDT0=    0
 Symmetry not used in FoFCou.
 Leave Link  703 at Wed Mar 23 16:16:41 2016, MaxMem=    33554432 cpu:         0.0
 (Enter /opt/g09/g09/l716.exe)
 Dipole        =-2.61644844D-01-9.15454251D-02 4.56977443D-02
 ***** Axes restored to original set *****
 -------------------------------------------------------------------
 Center     Atomic                   Forces (Hartrees/Bohr)
 Number     Number              X              Y              Z
 -------------------------------------------------------------------
      1        6          -0.097411237   -0.019568872   -0.044362052
      2        6           0.008698291    0.032970133    0.039327309
      3        6          -0.086939729    0.039001627   -0.021709436
      4        6           0.054028005    0.033534975    0.030946141
      5        1          -0.023203991   -0.020077762   -0.002620715
      6        1           0.012585694   -0.036215867   -0.004673016
      7        1          -0.000265211    0.017662342   -0.019437189
      8        1           0.052858452   -0.034346069    0.005579382
      9       16           0.079649725   -0.012960507    0.016949576
 -------------------------------------------------------------------
 Cartesian Forces:  Max     0.097411237 RMS     0.039923836
 Leave Link  716 at Wed Mar 23 16:16:41 2016, MaxMem=    33554432 cpu:         0.0
 (Enter /opt/g09/g09/l103.exe)

 GradGradGradGradGradGradGradGradGradGradGradGradGradGradGradGradGradGrad
 Berny optimization.
 FormGI is forming the generalized inverse of G from B-inverse, IUseBI=4.
 Internal  Forces:  Max     0.061523758 RMS     0.021686160
 Search for a local minimum.
 Step number   1 out of a maximum of   48
 All quantities printed in internal units (Hartrees-Bohrs-Radians)
 RMS Force = .21686D-01 SwitMx=.10000D-02 MixMth= 1
 Mixed Optimization -- RFO/linear search
 Second derivative matrix not updated -- first step.
 ITU=  0
     Eigenvalues ---    0.01349   0.01837   0.02026   0.02356   0.02414
     Eigenvalues ---    0.02661   0.14585   0.15151   0.15690   0.15885
     Eigenvalues ---    0.21803   0.22335   0.27561   0.28166   0.31145
     Eigenvalues ---    0.31348   0.35060   0.40108   0.42613   0.48273
     Eigenvalues ---    0.57256
 RFO step:  Lambda=-5.43682128D-02 EMin= 1.34858155D-02
 Linear search not attempted -- first point.
 Maximum step size (   0.300) exceeded in Quadratic search.
    -- Step size scaled by   0.910
 Iteration  1 RMS(Cart)=  0.05763895 RMS(Int)=  0.00392895
 Iteration  2 RMS(Cart)=  0.00317188 RMS(Int)=  0.00208602
 Iteration  3 RMS(Cart)=  0.00000927 RMS(Int)=  0.00208599
 Iteration  4 RMS(Cart)=  0.00000001 RMS(Int)=  0.00208599
 ITry= 1 IFail=0 DXMaxC= 1.54D-01 DCOld= 1.00D+10 DXMaxT= 3.00D-01 DXLimC= 3.00D+00 Rises=F
 Variable       Old X    -DE/DX   Delta X   Delta X   Delta X     New X
                                 (Linear)    (Quad)   (Total)
    R1        2.69206  -0.04862   0.00000  -0.10005  -0.09964   2.59242
    R2        2.66476   0.03119   0.00000   0.06047   0.05946   2.72422
    R3        1.88349   0.06152   0.00000   0.10424   0.10424   1.98773
    R4        2.05577  -0.02173   0.00000  -0.04882  -0.04882   2.00695
    R5        3.35610  -0.04412   0.00000  -0.13058  -0.12924   3.22686
    R6        2.50870   0.03195   0.00000   0.05043   0.04903   2.55773
    R7        2.12053  -0.03856   0.00000  -0.09540  -0.09540   2.02513
    R8        3.34396  -0.04650   0.00000  -0.11850  -0.11822   3.22574
    R9        2.12436  -0.03050   0.00000  -0.07586  -0.07586   2.04850
    A1        1.95092  -0.00098   0.00000   0.00430  -0.00016   1.95076
    A2        2.12431   0.00378   0.00000   0.02700   0.02508   2.14939
    A3        2.15431   0.00079   0.00000   0.01338   0.01053   2.16484
    A4        2.12660   0.00505   0.00000   0.04410   0.04150   2.16810
    A5        1.91937   0.00503   0.00000   0.00486   0.00305   1.92242
    A6        2.16953  -0.00600   0.00000  -0.00456  -0.00792   2.16161
    A7        2.25821   0.00874   0.00000   0.01800   0.01775   2.27596
    A8        1.96015  -0.02140   0.00000  -0.04394  -0.04782   1.91233
    A9        2.05704   0.01370   0.00000   0.03772   0.03737   2.09442
   A10        1.98551  -0.00618   0.00000   0.00661   0.00107   1.98659
   A11        2.14639   0.00080   0.00000  -0.00762  -0.00845   2.13794
   A12        2.13490   0.00722   0.00000   0.02198   0.02161   2.15651
   A13        1.56437   0.02741   0.00000   0.07747   0.07900   1.64336
    D1       -2.87205  -0.00196   0.00000  -0.02431  -0.02466  -2.89671
    D2       -0.10235   0.00733   0.00000   0.08987   0.09012  -0.01222
    D3        0.60472  -0.01282   0.00000  -0.16098  -0.16315   0.44156
    D4       -2.90877  -0.00352   0.00000  -0.04679  -0.04837  -2.95714
    D5        0.26779  -0.01390   0.00000  -0.16646  -0.16828   0.09951
    D6       -3.06351  -0.00263   0.00000  -0.04377  -0.04672  -3.11022
    D7        3.06746  -0.00216   0.00000  -0.02402  -0.02510   3.04237
    D8       -0.26383   0.00911   0.00000   0.09866   0.09647  -0.16737
    D9       -0.05137  -0.00241   0.00000  -0.00576  -0.00437  -0.05574
   D10        2.70725   0.01010   0.00000   0.12446   0.12265   2.82990
   D11        2.97136   0.00692   0.00000   0.06710   0.06665   3.03802
   D12        0.01807  -0.00349   0.00000  -0.05105  -0.05267  -0.03460
   D13       -0.30887   0.01677   0.00000   0.17373   0.17141  -0.13746
   D14        3.02102   0.00636   0.00000   0.05558   0.05208   3.07310
   D15        0.20536  -0.00700   0.00000  -0.09272  -0.09399   0.11137
   D16       -3.05734   0.00158   0.00000  -0.00034  -0.00268  -3.06002
         Item               Value     Threshold  Converged?
 Maximum Force            0.061524     0.000450     NO 
 RMS     Force            0.021686     0.000300     NO 
 Maximum Displacement     0.153848     0.001800     NO 
 RMS     Displacement     0.058109     0.001200     NO 
 Predicted change in Energy=-3.327408D-02
 Lowest energy point so far.  Saving SCF results.
 GradGradGradGradGradGradGradGradGradGradGradGradGradGradGradGradGradGrad

 Leave Link  103 at Wed Mar 23 16:16:41 2016, MaxMem=    33554432 cpu:         0.0
 (Enter /opt/g09/g09/l202.exe)
                          Input orientation:                          
 ---------------------------------------------------------------------
 Center     Atomic      Atomic             Coordinates (Angstroms)
 Number     Number       Type             X           Y           Z
 ---------------------------------------------------------------------
      1          6           0        0.880525   -0.685682    0.003946
      2          6           0       -0.386583   -1.209232   -0.044129
      3          6           0       -0.378095    1.288643    0.069311
      4          6           0        0.864029    0.755804   -0.002480
      5          1           0        1.771581    1.348618    0.002381
      6          1           0       -0.691745    2.308665    0.167409
      7          1           0       -0.621950   -2.223793    0.163682
      8          1           0        1.747848   -1.265148   -0.131620
      9         16           0       -1.541629    0.048040   -0.075288
 ---------------------------------------------------------------------
                    Distance matrix (angstroms):
                    1          2          3          4          5
     1  C    0.000000
     2  C    1.371852   0.000000
     3  C    2.342298   2.500465   0.000000
     4  C    1.441595   2.329621   1.353493   0.000000
     5  H    2.220892   3.347004   2.151554   1.084021   0.000000
     6  H    3.385981   3.537439   1.071655   2.204693   2.648944
     7  H    2.156092   1.062034   3.522156   3.333728   4.303153
     8  H    1.051859   2.136955   3.328942   2.209539   2.617306
     9  S    2.532085   1.707582   1.706991   2.508669   3.560182
                    6          7          8          9
     6  H    0.000000
     7  H    4.532997   0.000000
     8  H    4.337415   2.573353   0.000000
     9  S    2.427268   2.462548   3.542357   0.000000
 Stoichiometry    C4H4S
 Framework group  C1[X(C4H4S)]
 Deg. of freedom    21
 Full point group                 C1      NOp   1
 RotChk:  IX=3 Diff= 6.74D-02
 Largest Abelian subgroup         C1      NOp   1
 Largest concise Abelian subgroup C1      NOp   1
                         Standard orientation:                         
 ---------------------------------------------------------------------
 Center     Atomic      Atomic             Coordinates (Angstroms)
 Number     Number       Type             X           Y           Z
 ---------------------------------------------------------------------
      1          6           0       -1.278741    0.689318    0.015254
      2          6           0       -0.027116    1.250887    0.007903
      3          6           0        0.036678   -1.248303    0.055893
      4          6           0       -1.219069   -0.750378   -0.028445
      5          1           0       -2.108418   -1.369460   -0.058422
      6          1           0        0.378573   -2.260949    0.134000
      7          1           0        0.173522    2.265995    0.247101
      8          1           0       -2.160016    1.246525   -0.123611
      9         16           0        1.165364    0.029297   -0.031419
 ---------------------------------------------------------------------
 Rotational constants (GHZ):      7.9064409      5.5978058      3.2849486
 Leave Link  202 at Wed Mar 23 16:16:41 2016, MaxMem=    33554432 cpu:         0.0
 (Enter /opt/g09/g09/l301.exe)

 Semi-emprical parameters in input format:
 Method=8 CoreType=1 PeptideFC=0.0114505045 RIJScale=0.5291772086
 ****
 H       
 PQN=1 NValence=1 F0ss=0.4721553327 ZetaOverlap=1.1880780000 U=-0.4188110042
 Beta=-0.2268825074 CoreKO=1.0589197790 KON=0,0,0,1.1015293449 KON=1,0,1,1.0589197790
 KON=0,1,1,1.0589197790 KON=2,1,1,1.0589197790 EISol=-0.4188110042 EHeat=0.0830298228
 Alpha=1.5252601686
 GCore=0.0089595230,1.3828309232,2.2676713595
 GCore=0.0003499727,1.4001425905,3.5057056867
 GCore=-0.0012733648,0.5600570362,3.9696929775
 ****
 C       
 PQN=2,2 NValence=4 F0ss=0.4552189101 F0sp=0.4215147623 F0pp=0.3768030831 F2pp=0.1898715146
 G1sp=0.2679025821
 ZetaOverlap=1.8086650000,1.7495796022
 U=-1.7791527374,-1.4557965594
 Beta=-0.5775444233,-0.2921651104 DDN=0,1,0.8236736000 DDN=1,1,0.7268015000
 CoreKO=1.2867818912 KON=0,0,0,1.1124284736 KON=1,0,1,0.8219701441 KON=0,1,1,1.1124284736
 KON=2,1,1,0.7783928119 EISol=-4.4398989268 EHeat=0.2723305520 Alpha=1.3342128432
 DipHyp=1.6472524267
 GCore=0.0007885612,1.4001425905,2.9427076894
 GCore=0.0031892455,1.4001425905,3.4959933458
 GCore=-0.0013931594,1.4001425905,3.8739385724
 GCore=-0.0000875022,1.4001425905,5.0077742521
 ****
 S       
 PQN=3,3 NValence=6 F0ss=0.4826621401 F0sp=0.3183640731 F0pp=0.3136271218 F2pp=0.3456917167
 G1sp=0.2791629797
 ZetaOverlap=2.4973234255,1.6672630000,1.0000000000
 U=-2.0834683120,-1.7903186861
 Beta=-0.1440781557,-0.2905136336 DDN=0,1,0.9004265000 DDN=1,1,0.9874147874
 CoreKO=1.1543033468 KON=0,0,0,1.0475866855 KON=1,0,1,0.8480974288 KON=0,1,1,1.1543033468
 KON=2,1,1,0.7746001785 EISol=-7.0460287497 EHeat=0.1058151363 Alpha=1.3026480172
 DipHyp=1.8007493954
 GCore=-0.0353616377,1.3427001307,1.4563457902
 GCore=-0.0008238398,1.6425719595,2.8408498620
 GCore=0.0008565489,3.7964407093,3.7967867236
 ****
 
 Standard basis: VSTO-6G (5D, 7F)
 Ernie: Thresh=  0.10000D-02 Tol=  0.10000D-05 Strict=F.
  NNHCO=     0 NNPyr=     0 NCTC=     0               EPep=         0.000000000
    EC=        61.815181309  ECS=         1.838066272   EG=         0.146974179
   EHC=         0.000000000  EAt=       -26.480868474  AtH=         1.527256636
 EPDDG=         0.000000000  ECC=        63.800221760 EAtT=        28.008125109
 There are    24 symmetry adapted cartesian basis functions of A   symmetry.
 There are    24 symmetry adapted basis functions of A   symmetry.
    24 basis functions,   144 primitive gaussians,    24 cartesian basis functions
    13 alpha electrons       13 beta electrons
       nuclear repulsion energy        91.8083468691 Hartrees.



 Warning!  S  atom    9 may be hypervalent but has no d functions.



 IExCor=    0 DFT=F Ex=HF Corr=None ExCW=0 ScaHFX=  1.000000
 ScaDFX=  1.000000  1.000000  1.000000  1.000000 ScalE2=  1.000000  1.000000
 IRadAn=      0 IRanWt=     -1 IRanGd=            0 ICorTp=0 IEmpDi=  4
 Integral buffers will be    131072 words long.
 Regular integral format.
 Two-electron integral symmetry is turned off.
 Leave Link  301 at Wed Mar 23 16:16:41 2016, MaxMem=    33554432 cpu:         0.0
 (Enter /opt/g09/g09/l302.exe)
 Do NDO integrals.
 NPDir=0 NMtPBC=     1 NCelOv=     1 NCel=       1 NClECP=     1 NCelD=      1
         NCelK=      1 NCelE2=     1 NClLst=     1 CellRange=     0.0.
 One-electron integrals computed using PRISM.
 NBasis=    24 RedAO= F EigKep=  0.00D+00  NBF=    24
 NBsUse=    24 1.00D-04 EigRej=  0.00D+00 NBFU=    24
 Leave Link  302 at Wed Mar 23 16:16:41 2016, MaxMem=    33554432 cpu:         0.0
 (Enter /opt/g09/g09/l303.exe)
 DipDrv:  MaxL=1.
 Leave Link  303 at Wed Mar 23 16:16:41 2016, MaxMem=    33554432 cpu:         0.0
 (Enter /opt/g09/g09/l401.exe)
 Initial guess from the checkpoint file:  "/opt/g09/scratch/Gau-5880.chk"
 B after Tr=     0.000000    0.000000    0.000000
         Rot=    0.999753   -0.000614   -0.001641   -0.022153 Ang=  -2.55 deg.
 Guess basis will be translated and rotated to current coordinates.
 JPrj=0 DoOrth=T DoCkMO=T.
 Leave Link  401 at Wed Mar 23 16:16:41 2016, MaxMem=    33554432 cpu:         0.0
 (Enter /opt/g09/g09/l502.exe)
 Closed shell SCF:
 Using DIIS extrapolation, IDIIS=  1040.
 Overlap will be assumed to be unity.
 Two-electron integral symmetry not used.
 Keep J ints in memory in canonical form, NReq=888082.
 IVT=       79475 IEndB=       79475 NGot=    33554432 MDV=    33473473
 LenX=    33473473 LenY=    33472456
 Requested convergence on RMS density matrix=1.00D-08 within 128 cycles.
 Requested convergence on MAX density matrix=1.00D-06.
 Requested convergence on             energy=1.00D-06.
 No special actions if energy rises.
 FoFCou: FMM=F IPFlag=           0 FMFlag=           0 FMFlg1=           0
         NFxFlg=           0 DoJE=F BraDBF=F KetDBF=F FulRan=T
         wScrn=  0.000000 ICntrl=     600 IOpCl=  2 I1Cent=           0 NGrid=           0
         NMat0=    1 NMatS0=     54 NMatT0=    0 NMatD0=    1 NMtDS0=    0 NMtDT0=    0
 Symmetry not used in FoFCou.

 Cycle   1  Pass 1  IDiag  1:
 E= 0.968072451307137    
 DIIS: error= 8.46D-03 at cycle   1 NSaved=   1.
 NSaved= 1 IEnMin= 1 EnMin= 0.968072451307137     IErMin= 1 ErrMin= 8.46D-03
 ErrMax= 8.46D-03  0.00D+00 EMaxC= 1.00D-01 BMatC= 2.99D-03 BMatP= 2.99D-03
 IDIUse=3 WtCom= 9.15D-01 WtEn= 8.46D-02
 Coeff-Com:  0.100D+01
 Coeff-En:   0.100D+01
 Coeff:      0.100D+01
 GapD=    2.000 DampG=2.000 DampE=1.000 DampFc=2.0000 IDamp=-1.
 RMSDP=4.27D-03 MaxDP=2.03D-02              OVMax= 0.00D+00

 Cycle   2  Pass 1  IDiag  3:
 E= 0.957725127370566     Delta-E=       -0.010347323937 Rises=F Damp=F
 DIIS: error= 3.03D-03 at cycle   2 NSaved=   2.
 NSaved= 2 IEnMin= 2 EnMin= 0.957725127370566     IErMin= 2 ErrMin= 3.03D-03
 ErrMax= 3.03D-03  0.00D+00 EMaxC= 1.00D-01 BMatC= 4.21D-04 BMatP= 2.99D-03
 IDIUse=3 WtCom= 9.70D-01 WtEn= 3.03D-02
 Coeff-Com: -0.497D+00 0.150D+01
 Coeff-En:   0.000D+00 0.100D+01
 Coeff:     -0.482D+00 0.148D+01
 Gap=     0.334 Goal=   None    Shift=    0.000
 RMSDP=2.71D-03 MaxDP=1.47D-02 DE=-1.03D-02 OVMax= 1.53D-02

 Cycle   3  Pass 1  IDiag  3:
 E= 0.955568914978358     Delta-E=       -0.002156212392 Rises=F Damp=F
 DIIS: error= 7.08D-04 at cycle   3 NSaved=   3.
 NSaved= 3 IEnMin= 3 EnMin= 0.955568914978358     IErMin= 3 ErrMin= 7.08D-04
 ErrMax= 7.08D-04  0.00D+00 EMaxC= 1.00D-01 BMatC= 1.91D-05 BMatP= 4.21D-04
 IDIUse=3 WtCom= 9.93D-01 WtEn= 7.08D-03
 Coeff-Com:  0.224D+00-0.800D+00 0.158D+01
 Coeff-En:   0.000D+00 0.000D+00 0.100D+01
 Coeff:      0.222D+00-0.795D+00 0.157D+01
 Gap=     0.334 Goal=   None    Shift=    0.000
 RMSDP=8.09D-04 MaxDP=4.48D-03 DE=-2.16D-03 OVMax= 3.98D-03

 Cycle   4  Pass 1  IDiag  3:
 E= 0.955437155420853     Delta-E=       -0.000131759558 Rises=F Damp=F
 DIIS: error= 1.02D-04 at cycle   4 NSaved=   4.
 NSaved= 4 IEnMin= 4 EnMin= 0.955437155420853     IErMin= 4 ErrMin= 1.02D-04
 ErrMax= 1.02D-04  0.00D+00 EMaxC= 1.00D-01 BMatC= 6.57D-07 BMatP= 1.91D-05
 IDIUse=3 WtCom= 9.99D-01 WtEn= 1.02D-03
 Coeff-Com: -0.753D-01 0.278D+00-0.660D+00 0.146D+01
 Coeff-En:   0.000D+00 0.000D+00 0.000D+00 0.100D+01
 Coeff:     -0.752D-01 0.278D+00-0.660D+00 0.146D+01
 Gap=     0.334 Goal=   None    Shift=    0.000
 RMSDP=1.63D-04 MaxDP=7.60D-04 DE=-1.32D-04 OVMax= 9.26D-04

 Cycle   5  Pass 1  IDiag  3:
 E= 0.955431977760483     Delta-E=       -0.000005177660 Rises=F Damp=F
 DIIS: error= 3.79D-05 at cycle   5 NSaved=   5.
 NSaved= 5 IEnMin= 5 EnMin= 0.955431977760483     IErMin= 5 ErrMin= 3.79D-05
 ErrMax= 3.79D-05  0.00D+00 EMaxC= 1.00D-01 BMatC= 4.48D-08 BMatP= 6.57D-07
 IDIUse=1 WtCom= 1.00D+00 WtEn= 0.00D+00
 Coeff-Com:  0.216D-01-0.814D-01 0.217D+00-0.701D+00 0.154D+01
 Coeff:      0.216D-01-0.814D-01 0.217D+00-0.701D+00 0.154D+01
 Gap=     0.334 Goal=   None    Shift=    0.000
 RMSDP=4.83D-05 MaxDP=3.09D-04 DE=-5.18D-06 OVMax= 3.68D-04

 Cycle   6  Pass 1  IDiag  3:
 E= 0.955431589662226     Delta-E=       -0.000000388098 Rises=F Damp=F
 DIIS: error= 9.46D-06 at cycle   6 NSaved=   6.
 NSaved= 6 IEnMin= 6 EnMin= 0.955431589662226     IErMin= 6 ErrMin= 9.46D-06
 ErrMax= 9.46D-06  0.00D+00 EMaxC= 1.00D-01 BMatC= 2.42D-09 BMatP= 4.48D-08
 IDIUse=1 WtCom= 1.00D+00 WtEn= 0.00D+00
 Coeff-Com: -0.794D-02 0.302D-01-0.856D-01 0.316D+00-0.857D+00 0.160D+01
 Coeff:     -0.794D-02 0.302D-01-0.856D-01 0.316D+00-0.857D+00 0.160D+01
 Gap=     0.334 Goal=   None    Shift=    0.000
 RMSDP=1.25D-05 MaxDP=9.13D-05 DE=-3.88D-07 OVMax= 1.31D-04

 Cycle   7  Pass 1  IDiag  3:
 E= 0.955431564964286     Delta-E=       -0.000000024698 Rises=F Damp=F
 DIIS: error= 2.73D-06 at cycle   7 NSaved=   7.
 NSaved= 7 IEnMin= 7 EnMin= 0.955431564964286     IErMin= 7 ErrMin= 2.73D-06
 ErrMax= 2.73D-06  0.00D+00 EMaxC= 1.00D-01 BMatC= 1.96D-10 BMatP= 2.42D-09
 IDIUse=1 WtCom= 1.00D+00 WtEn= 0.00D+00
 Coeff-Com:  0.398D-02-0.151D-01 0.427D-01-0.157D+00 0.433D+00-0.992D+00
 Coeff-Com:  0.168D+01
 Coeff:      0.398D-02-0.151D-01 0.427D-01-0.157D+00 0.433D+00-0.992D+00
 Coeff:      0.168D+01
 Gap=     0.334 Goal=   None    Shift=    0.000
 RMSDP=4.10D-06 MaxDP=3.04D-05 DE=-2.47D-08 OVMax= 4.73D-05

 Cycle   8  Pass 1  IDiag  3:
 E= 0.955431562786686     Delta-E=       -0.000000002178 Rises=F Damp=F
 DIIS: error= 6.48D-07 at cycle   8 NSaved=   8.
 NSaved= 8 IEnMin= 8 EnMin= 0.955431562786686     IErMin= 8 ErrMin= 6.48D-07
 ErrMax= 6.48D-07  0.00D+00 EMaxC= 1.00D-01 BMatC= 1.11D-11 BMatP= 1.96D-10
 IDIUse=1 WtCom= 1.00D+00 WtEn= 0.00D+00
 Coeff-Com: -0.748D-03 0.284D-02-0.822D-02 0.311D-01-0.866D-01 0.226D+00
 Coeff-Com: -0.580D+00 0.142D+01
 Coeff:     -0.748D-03 0.284D-02-0.822D-02 0.311D-01-0.866D-01 0.226D+00
 Coeff:     -0.580D+00 0.142D+01
 Gap=     0.334 Goal=   None    Shift=    0.000
 RMSDP=8.63D-07 MaxDP=6.57D-06 DE=-2.18D-09 OVMax= 1.00D-05

 Cycle   9  Pass 1  IDiag  3:
 E= 0.955431562677859     Delta-E=       -0.000000000109 Rises=F Damp=F
 DIIS: error= 1.85D-07 at cycle   9 NSaved=   9.
 NSaved= 9 IEnMin= 9 EnMin= 0.955431562677859     IErMin= 9 ErrMin= 1.85D-07
 ErrMax= 1.85D-07  0.00D+00 EMaxC= 1.00D-01 BMatC= 9.39D-13 BMatP= 1.11D-11
 IDIUse=1 WtCom= 1.00D+00 WtEn= 0.00D+00
 Coeff-Com:  0.109D-03-0.407D-03 0.116D-02-0.419D-02 0.108D-01-0.352D-01
 Coeff-Com:  0.153D+00-0.685D+00 0.156D+01
 Coeff:      0.109D-03-0.407D-03 0.116D-02-0.419D-02 0.108D-01-0.352D-01
 Coeff:      0.153D+00-0.685D+00 0.156D+01
 Gap=     0.334 Goal=   None    Shift=    0.000
 RMSDP=2.39D-07 MaxDP=1.87D-06 DE=-1.09D-10 OVMax= 2.47D-06

 Cycle  10  Pass 1  IDiag  3:
 E= 0.955431562669503     Delta-E=       -0.000000000008 Rises=F Damp=F
 DIIS: error= 3.53D-08 at cycle  10 NSaved=  10.
 NSaved=10 IEnMin=10 EnMin= 0.955431562669503     IErMin=10 ErrMin= 3.53D-08
 ErrMax= 3.53D-08  0.00D+00 EMaxC= 1.00D-01 BMatC= 4.36D-14 BMatP= 9.39D-13
 IDIUse=1 WtCom= 1.00D+00 WtEn= 0.00D+00
 Coeff-Com: -0.736D-05 0.264D-04-0.825D-04 0.265D-03-0.356D-03 0.511D-02
 Coeff-Com: -0.466D-01 0.275D+00-0.794D+00 0.156D+01
 Coeff:     -0.736D-05 0.264D-04-0.825D-04 0.265D-03-0.356D-03 0.511D-02
 Coeff:     -0.466D-01 0.275D+00-0.794D+00 0.156D+01
 Gap=     0.334 Goal=   None    Shift=    0.000
 RMSDP=4.92D-08 MaxDP=3.53D-07 DE=-8.36D-12 OVMax= 4.55D-07

 Cycle  11  Pass 1  IDiag  3:
 E= 0.955431562669006     Delta-E=        0.000000000000 Rises=F Damp=F
 DIIS: error= 6.25D-09 at cycle  11 NSaved=  11.
 NSaved=11 IEnMin=11 EnMin= 0.955431562669006     IErMin=11 ErrMin= 6.25D-09
 ErrMax= 6.25D-09  0.00D+00 EMaxC= 1.00D-01 BMatC= 2.27D-15 BMatP= 4.36D-14
 IDIUse=1 WtCom= 1.00D+00 WtEn= 0.00D+00
 Coeff-Com:  0.412D-05-0.146D-04 0.444D-04-0.127D-03 0.839D-04-0.265D-02
 Coeff-Com:  0.269D-01-0.163D+00 0.483D+00-0.106D+01 0.172D+01
 Coeff:      0.412D-05-0.146D-04 0.444D-04-0.127D-03 0.839D-04-0.265D-02
 Coeff:      0.269D-01-0.163D+00 0.483D+00-0.106D+01 0.172D+01
 Gap=     0.334 Goal=   None    Shift=    0.000
 RMSDP=1.20D-08 MaxDP=6.89D-08 DE=-4.97D-13 OVMax= 1.11D-07

 Cycle  12  Pass 1  IDiag  3:
 E= 0.955431562669048     Delta-E=        0.000000000000 Rises=F Damp=F
 DIIS: error= 1.52D-09 at cycle  12 NSaved=  12.
 NSaved=12 IEnMin=11 EnMin= 0.955431562669006     IErMin=12 ErrMin= 1.52D-09
 ErrMax= 1.52D-09  0.00D+00 EMaxC= 1.00D-01 BMatC= 1.30D-16 BMatP= 2.27D-15
 IDIUse=1 WtCom= 1.00D+00 WtEn= 0.00D+00
 Coeff-Com: -0.156D-05 0.552D-05-0.166D-04 0.460D-04-0.226D-04 0.945D-03
 Coeff-Com: -0.986D-02 0.602D-01-0.180D+00 0.410D+00-0.852D+00 0.157D+01
 Coeff:     -0.156D-05 0.552D-05-0.166D-04 0.460D-04-0.226D-04 0.945D-03
 Coeff:     -0.986D-02 0.602D-01-0.180D+00 0.410D+00-0.852D+00 0.157D+01
 Gap=     0.334 Goal=   None    Shift=    0.000
 RMSDP=3.05D-09 MaxDP=1.56D-08 DE= 4.26D-14 OVMax= 3.42D-08

 Cycle  13  Pass 2  IDiag  1:
 SCF Done:  E(RAM1) =  0.955431562669     A.U. after   13 cycles
            NFock= 12  Conv=0.30D-08     -V/T= 1.0698
 KE=-1.368003131328D+01 PE=-1.535929962625D+02 EE= 7.642011226932D+01
 Leave Link  502 at Wed Mar 23 16:16:41 2016, MaxMem=    33554432 cpu:         0.0
 (Enter /opt/g09/g09/l701.exe)
 Compute integral first derivatives.
 ... and contract with generalized density number  0.
 Leave Link  701 at Wed Mar 23 16:16:41 2016, MaxMem=    33554432 cpu:         0.0
 (Enter /opt/g09/g09/l702.exe)
 L702 exits ... SP integral derivatives will be done elsewhere.
 Leave Link  702 at Wed Mar 23 16:16:41 2016, MaxMem=    33554432 cpu:         0.0
 (Enter /opt/g09/g09/l703.exe)
 Compute integral first derivatives, UseDBF=F ICtDFT=           0.
 Integral derivatives from FoFJK, PRISM(SPDF).
 Calling FoFJK, ICntrl=      2127 FMM=F ISym2X=0 I1Cent= 0 IOpClX= 0 NMat=1 NMatS=1 NMatT=0.
 FoFJK:  IHMeth= 8 ICntrl=    2127 DoSepK=F KAlg= 0 I1Cent=   0 FoldK=F
 IRaf=         0 NMat=   1 IRICut=       1 DoRegI=T DoRafI=F ISym2E= 0.
 FoFCou: FMM=F IPFlag=           0 FMFlag=      100000 FMFlg1=         800
         NFxFlg=           0 DoJE=F BraDBF=F KetDBF=F FulRan=T
         wScrn=  0.000000 ICntrl=    2127 IOpCl=  0 I1Cent=           0 NGrid=           0
         NMat0=    1 NMatS0=      1 NMatT0=    0 NMatD0=    1 NMtDS0=    0 NMtDT0=    0
 Symmetry not used in FoFCou.
 Leave Link  703 at Wed Mar 23 16:16:41 2016, MaxMem=    33554432 cpu:         0.0
 (Enter /opt/g09/g09/l716.exe)
 Dipole        =-7.96387192D-02-2.10476357D-02 2.99524768D-02
 ***** Axes restored to original set *****
 -------------------------------------------------------------------
 Center     Atomic                   Forces (Hartrees/Bohr)
 Number     Number              X              Y              Z
 -------------------------------------------------------------------
      1        6          -0.014590265    0.006498020   -0.024000623
      2        6          -0.021568240    0.020595138    0.019967030
      3        6          -0.041979993   -0.010322035   -0.011716442
      4        6           0.027016726    0.007602208    0.013237027
      5        1          -0.005748509   -0.006777490   -0.000591954
      6        1           0.006790337   -0.005858173   -0.001858198
      7        1          -0.002694703   -0.001390091   -0.011307314
      8        1           0.013670032   -0.004920365    0.007495068
      9       16           0.039104614   -0.005427213    0.008775406
 -------------------------------------------------------------------
 Cartesian Forces:  Max     0.041979993 RMS     0.016433214
 Leave Link  716 at Wed Mar 23 16:16:41 2016, MaxMem=    33554432 cpu:         0.0
 (Enter /opt/g09/g09/l103.exe)

 GradGradGradGradGradGradGradGradGradGradGradGradGradGradGradGradGradGrad
 Berny optimization.
 Using GEDIIS/GDIIS optimizer.
 FormGI is forming the generalized inverse of G from B-inverse, IUseBI=4.
 Internal  Forces:  Max     0.027855354 RMS     0.008043534
 Search for a local minimum.
 Step number   2 out of a maximum of   48
 All quantities printed in internal units (Hartrees-Bohrs-Radians)
 RMS Force = .80435D-02 SwitMx=.10000D-02 MixMth= 1
 Mixed Optimization -- RFO/linear search
 Update second derivatives using D2CorX and points    1    2
 DE= -3.34D-02 DEPred=-3.33D-02 R= 1.00D+00
 TightC=F SS=  1.41D+00  RLast= 4.79D-01 DXNew= 5.0454D-01 1.4366D+00
 Trust test= 1.00D+00 RLast= 4.79D-01 DXMaxT set to 5.05D-01
 ITU=  1  0
 Use linear search instead of GDIIS.
     Eigenvalues ---    0.01288   0.01640   0.01919   0.02292   0.02612
     Eigenvalues ---    0.02677   0.14911   0.15656   0.15815   0.15976
     Eigenvalues ---    0.20527   0.22518   0.23290   0.27859   0.31142
     Eigenvalues ---    0.31696   0.35368   0.41342   0.45616   0.50130
     Eigenvalues ---    0.56841
 RFO step:  Lambda=-1.07076425D-02 EMin= 1.28799750D-02
 Quartic linear search produced a step of  0.47484.
 Iteration  1 RMS(Cart)=  0.05944379 RMS(Int)=  0.01642597
 Iteration  2 RMS(Cart)=  0.00947811 RMS(Int)=  0.00362189
 Iteration  3 RMS(Cart)=  0.00020046 RMS(Int)=  0.00361377
 Iteration  4 RMS(Cart)=  0.00000054 RMS(Int)=  0.00361377
 ITry= 1 IFail=0 DXMaxC= 2.23D-01 DCOld= 1.00D+10 DXMaxT= 5.05D-01 DXLimC= 3.00D+00 Rises=F
 Variable       Old X    -DE/DX   Delta X   Delta X   Delta X     New X
                                 (Linear)    (Quad)   (Total)
    R1        2.59242   0.00380  -0.04731   0.05756   0.01236   2.60479
    R2        2.72422  -0.00135   0.02823  -0.03000  -0.00254   2.72168
    R3        1.98773   0.01302   0.04950  -0.01048   0.03901   2.02674
    R4        2.00695  -0.00029  -0.02318   0.02252  -0.00066   2.00630
    R5        3.22686  -0.02786  -0.06137  -0.07872  -0.13784   3.08902
    R6        2.55773   0.01355   0.02328   0.01218   0.03284   2.59058
    R7        2.02513  -0.00773  -0.04530   0.01275  -0.03255   1.99259
    R8        3.22574  -0.02399  -0.05613  -0.05530  -0.11257   3.11317
    R9        2.04850  -0.00852  -0.03602  -0.00059  -0.03661   2.01189
    A1        1.95076  -0.00072  -0.00008   0.00348   0.00006   1.95082
    A2        2.14939   0.00502   0.01191   0.03567   0.04324   2.19263
    A3        2.16484  -0.00326   0.00500  -0.02726  -0.02712   2.13771
    A4        2.16810   0.00369   0.01971   0.03280   0.04234   2.21044
    A5        1.92242   0.00049   0.00145   0.00214  -0.00115   1.92127
    A6        2.16161  -0.00263  -0.00376   0.00318  -0.01106   2.15055
    A7        2.27596  -0.00503   0.00843  -0.05476  -0.04626   2.22970
    A8        1.91233   0.00053  -0.02271   0.04154   0.01277   1.92510
    A9        2.09442   0.00460   0.01775   0.01450   0.03241   2.12682
   A10        1.98659  -0.00876   0.00051  -0.03883  -0.04436   1.94222
   A11        2.13794   0.00197  -0.00401   0.00713   0.00276   2.14070
   A12        2.15651   0.00705   0.01026   0.03377   0.04353   2.20004
   A13        1.64336   0.00926   0.03751   0.00288   0.04159   1.68496
    D1       -2.89671  -0.00335  -0.01171  -0.16368  -0.17597  -3.07269
    D2       -0.01222   0.00243   0.04279  -0.00939   0.03592   0.02369
    D3        0.44156  -0.00851  -0.07747  -0.22337  -0.30532   0.13624
    D4       -2.95714  -0.00273  -0.02297  -0.06908  -0.09343  -3.05056
    D5        0.09951  -0.00648  -0.07991  -0.05038  -0.12925  -0.02973
    D6       -3.11022  -0.00220  -0.02218  -0.01633  -0.03963   3.13334
    D7        3.04237  -0.00017  -0.01192   0.01835   0.00461   3.04698
    D8       -0.16737   0.00411   0.04581   0.05240   0.09423  -0.07313
    D9       -0.05574   0.00027  -0.00207   0.04638   0.04603  -0.00971
   D10        2.82990   0.00714   0.05824   0.20523   0.25863   3.08853
   D11        3.03802   0.00286   0.03165   0.03398   0.06586   3.10388
   D12       -0.03460  -0.00124  -0.02501   0.00075  -0.02548  -0.06008
   D13       -0.13746   0.00669   0.08139   0.08036   0.15955   0.02209
   D14        3.07310   0.00259   0.02473   0.04713   0.06821   3.14131
   D15        0.11137  -0.00356  -0.04463  -0.07034  -0.11898  -0.00762
   D16       -3.06002  -0.00040  -0.00127  -0.03120  -0.03353  -3.09355
         Item               Value     Threshold  Converged?
 Maximum Force            0.027855     0.000450     NO 
 RMS     Force            0.008044     0.000300     NO 
 Maximum Displacement     0.223283     0.001800     NO 
 RMS     Displacement     0.066487     0.001200     NO 
 Predicted change in Energy=-1.116742D-02
 Lowest energy point so far.  Saving SCF results.
 GradGradGradGradGradGradGradGradGradGradGradGradGradGradGradGradGradGrad

 Leave Link  103 at Wed Mar 23 16:16:41 2016, MaxMem=    33554432 cpu:         0.0
 (Enter /opt/g09/g09/l202.exe)
                          Input orientation:                          
 ---------------------------------------------------------------------
 Center     Atomic      Atomic             Coordinates (Angstroms)
 Number     Number       Type             X           Y           Z
 ---------------------------------------------------------------------
      1          6           0        0.877612   -0.672969   -0.013692
      2          6           0       -0.402068   -1.184443    0.014262
      3          6           0       -0.398752    1.264846    0.037167
      4          6           0        0.878377    0.766837    0.022154
      5          1           0        1.774819    1.341138    0.015360
      6          1           0       -0.697338    2.274499    0.094358
      7          1           0       -0.673918   -2.209884    0.056057
      8          1           0        1.777804   -1.247066   -0.115324
      9         16           0       -1.492555    0.032956    0.042868
 ---------------------------------------------------------------------
                    Distance matrix (angstroms):
                    1          2          3          4          5
     1  C    0.000000
     2  C    1.378393   0.000000
     3  C    2.320952   2.449398   0.000000
     4  C    1.440252   2.333901   1.370874   0.000000
     5  H    2.205097   3.334276   2.175019   1.064649   0.000000
     6  H    3.343607   3.472446   1.054431   2.182002   2.643665
     7  H    2.184999   1.061687   3.485660   3.357326   4.313668
     8  H    1.072503   2.184618   3.327214   2.209905   2.591504
     9  S    2.473706   1.634638   1.647419   2.482000   3.519635
                    6          7          8          9
     6  H    0.000000
     7  H    4.484609   0.000000
     8  H    4.309492   2.639571   0.000000
     9  S    2.378978   2.387608   3.515499   0.000000
 Stoichiometry    C4H4S
 Framework group  C1[X(C4H4S)]
 Deg. of freedom    21
 Full point group                 C1      NOp   1
 RotChk:  IX=2 Diff= 9.35D-02
 Largest Abelian subgroup         C1      NOp   1
 Largest concise Abelian subgroup C1      NOp   1
                         Standard orientation:                         
 ---------------------------------------------------------------------
 Center     Atomic      Atomic             Coordinates (Angstroms)
 Number     Number       Type             X           Y           Z
 ---------------------------------------------------------------------
      1          6           0       -1.225758    0.738462   -0.002217
      2          6           0        0.064728    1.222736    0.007344
      3          6           0        0.010216   -1.226012   -0.007282
      4          6           0       -1.256167   -0.701403    0.011535
      5          1           0       -2.164478   -1.256778    0.014307
      6          1           0        0.288533   -2.242427    0.028273
      7          1           0        0.358934    2.241521    0.059290
      8          1           0       -2.115509    1.332669   -0.076550
      9         16           0        1.129651   -0.017355   -0.005100
 ---------------------------------------------------------------------
 Rotational constants (GHZ):      8.1562111      5.8006307      3.3904512
 Leave Link  202 at Wed Mar 23 16:16:41 2016, MaxMem=    33554432 cpu:         0.0
 (Enter /opt/g09/g09/l301.exe)

 Semi-emprical parameters in input format:
 Method=8 CoreType=1 PeptideFC=0.0114505045 RIJScale=0.5291772086
 ****
 H       
 PQN=1 NValence=1 F0ss=0.4721553327 ZetaOverlap=1.1880780000 U=-0.4188110042
 Beta=-0.2268825074 CoreKO=1.0589197790 KON=0,0,0,1.1015293449 KON=1,0,1,1.0589197790
 KON=0,1,1,1.0589197790 KON=2,1,1,1.0589197790 EISol=-0.4188110042 EHeat=0.0830298228
 Alpha=1.5252601686
 GCore=0.0089595230,1.3828309232,2.2676713595
 GCore=0.0003499727,1.4001425905,3.5057056867
 GCore=-0.0012733648,0.5600570362,3.9696929775
 ****
 C       
 PQN=2,2 NValence=4 F0ss=0.4552189101 F0sp=0.4215147623 F0pp=0.3768030831 F2pp=0.1898715146
 G1sp=0.2679025821
 ZetaOverlap=1.8086650000,1.7495796022
 U=-1.7791527374,-1.4557965594
 Beta=-0.5775444233,-0.2921651104 DDN=0,1,0.8236736000 DDN=1,1,0.7268015000
 CoreKO=1.2867818912 KON=0,0,0,1.1124284736 KON=1,0,1,0.8219701441 KON=0,1,1,1.1124284736
 KON=2,1,1,0.7783928119 EISol=-4.4398989268 EHeat=0.2723305520 Alpha=1.3342128432
 DipHyp=1.6472524267
 GCore=0.0007885612,1.4001425905,2.9427076894
 GCore=0.0031892455,1.4001425905,3.4959933458
 GCore=-0.0013931594,1.4001425905,3.8739385724
 GCore=-0.0000875022,1.4001425905,5.0077742521
 ****
 S       
 PQN=3,3 NValence=6 F0ss=0.4826621401 F0sp=0.3183640731 F0pp=0.3136271218 F2pp=0.3456917167
 G1sp=0.2791629797
 ZetaOverlap=2.4973234255,1.6672630000,1.0000000000
 U=-2.0834683120,-1.7903186861
 Beta=-0.1440781557,-0.2905136336 DDN=0,1,0.9004265000 DDN=1,1,0.9874147874
 CoreKO=1.1543033468 KON=0,0,0,1.0475866855 KON=1,0,1,0.8480974288 KON=0,1,1,1.1543033468
 KON=2,1,1,0.7746001785 EISol=-7.0460287497 EHeat=0.1058151363 Alpha=1.3026480172
 DipHyp=1.8007493954
 GCore=-0.0353616377,1.3427001307,1.4563457902
 GCore=-0.0008238398,1.6425719595,2.8408498620
 GCore=0.0008565489,3.7964407093,3.7967867236
 ****
 
 Standard basis: VSTO-6G (5D, 7F)
 Ernie: Thresh=  0.10000D-02 Tol=  0.10000D-05 Strict=F.
  NNHCO=     0 NNPyr=     0 NCTC=     0               EPep=         0.000000000
    EC=        62.335098089  ECS=         1.904649309   EG=         0.138616134
   EHC=         0.000000000  EAt=       -26.480868474  AtH=         1.527256636
 EPDDG=         0.000000000  ECC=        64.378363533 EAtT=        28.008125109
 There are    24 symmetry adapted cartesian basis functions of A   symmetry.
 There are    24 symmetry adapted basis functions of A   symmetry.
    24 basis functions,   144 primitive gaussians,    24 cartesian basis functions
    13 alpha electrons       13 beta electrons
       nuclear repulsion energy        92.3864886418 Hartrees.



 Warning!  S  atom    9 may be hypervalent but has no d functions.



 IExCor=    0 DFT=F Ex=HF Corr=None ExCW=0 ScaHFX=  1.000000
 ScaDFX=  1.000000  1.000000  1.000000  1.000000 ScalE2=  1.000000  1.000000
 IRadAn=      0 IRanWt=     -1 IRanGd=            0 ICorTp=0 IEmpDi=  4
 Integral buffers will be    131072 words long.
 Regular integral format.
 Two-electron integral symmetry is turned off.
 Leave Link  301 at Wed Mar 23 16:16:41 2016, MaxMem=    33554432 cpu:         0.0
 (Enter /opt/g09/g09/l302.exe)
 Do NDO integrals.
 NPDir=0 NMtPBC=     1 NCelOv=     1 NCel=       1 NClECP=     1 NCelD=      1
         NCelK=      1 NCelE2=     1 NClLst=     1 CellRange=     0.0.
 One-electron integrals computed using PRISM.
 NBasis=    24 RedAO= F EigKep=  0.00D+00  NBF=    24
 NBsUse=    24 1.00D-04 EigRej=  0.00D+00 NBFU=    24
 Leave Link  302 at Wed Mar 23 16:16:41 2016, MaxMem=    33554432 cpu:         0.0
 (Enter /opt/g09/g09/l303.exe)
 DipDrv:  MaxL=1.
 Leave Link  303 at Wed Mar 23 16:16:41 2016, MaxMem=    33554432 cpu:         0.0
 (Enter /opt/g09/g09/l401.exe)
 Initial guess from the checkpoint file:  "/opt/g09/scratch/Gau-5880.chk"
 B after Tr=     0.000000    0.000000    0.000000
         Rot=    0.999732    0.000058   -0.000663    0.023127 Ang=   2.65 deg.
 Guess basis will be translated and rotated to current coordinates.
 JPrj=0 DoOrth=T DoCkMO=T.
 Leave Link  401 at Wed Mar 23 16:16:41 2016, MaxMem=    33554432 cpu:         0.0
 (Enter /opt/g09/g09/l502.exe)
 Closed shell SCF:
 Using DIIS extrapolation, IDIIS=  1040.
 Overlap will be assumed to be unity.
 Two-electron integral symmetry not used.
 Keep J ints in memory in canonical form, NReq=888082.
 IVT=       79475 IEndB=       79475 NGot=    33554432 MDV=    33473473
 LenX=    33473473 LenY=    33472456
 Requested convergence on RMS density matrix=1.00D-08 within 128 cycles.
 Requested convergence on MAX density matrix=1.00D-06.
 Requested convergence on             energy=1.00D-06.
 No special actions if energy rises.
 FoFCou: FMM=F IPFlag=           0 FMFlag=           0 FMFlg1=           0
         NFxFlg=           0 DoJE=F BraDBF=F KetDBF=F FulRan=T
         wScrn=  0.000000 ICntrl=     600 IOpCl=  2 I1Cent=           0 NGrid=           0
         NMat0=    1 NMatS0=     54 NMatT0=    0 NMatD0=    1 NMtDS0=    0 NMtDT0=    0
 Symmetry not used in FoFCou.

 Cycle   1  Pass 1  IDiag  1:
 E= 0.958486856158331    
 DIIS: error= 7.60D-03 at cycle   1 NSaved=   1.
 NSaved= 1 IEnMin= 1 EnMin= 0.958486856158331     IErMin= 1 ErrMin= 7.60D-03
 ErrMax= 7.60D-03  0.00D+00 EMaxC= 1.00D-01 BMatC= 2.71D-03 BMatP= 2.71D-03
 IDIUse=3 WtCom= 9.24D-01 WtEn= 7.60D-02
 Coeff-Com:  0.100D+01
 Coeff-En:   0.100D+01
 Coeff:      0.100D+01
 GapD=    2.000 DampG=2.000 DampE=1.000 DampFc=2.0000 IDamp=-1.
 RMSDP=4.58D-03 MaxDP=2.32D-02              OVMax= 0.00D+00

 Cycle   2  Pass 1  IDiag  3:
 E= 0.947644115666705     Delta-E=       -0.010842740492 Rises=F Damp=F
 DIIS: error= 3.29D-03 at cycle   2 NSaved=   2.
 NSaved= 2 IEnMin= 2 EnMin= 0.947644115666705     IErMin= 2 ErrMin= 3.29D-03
 ErrMax= 3.29D-03  0.00D+00 EMaxC= 1.00D-01 BMatC= 4.66D-04 BMatP= 2.71D-03
 IDIUse=3 WtCom= 9.67D-01 WtEn= 3.29D-02
 Coeff-Com: -0.573D+00 0.157D+01
 Coeff-En:   0.000D+00 0.100D+01
 Coeff:     -0.554D+00 0.155D+01
 Gap=     0.335 Goal=   None    Shift=    0.000
 RMSDP=3.35D-03 MaxDP=1.67D-02 DE=-1.08D-02 OVMax= 2.12D-02

 Cycle   3  Pass 1  IDiag  3:
 E= 0.944799832084172     Delta-E=       -0.002844283583 Rises=F Damp=F
 DIIS: error= 6.97D-04 at cycle   3 NSaved=   3.
 NSaved= 3 IEnMin= 3 EnMin= 0.944799832084172     IErMin= 3 ErrMin= 6.97D-04
 ErrMax= 6.97D-04  0.00D+00 EMaxC= 1.00D-01 BMatC= 2.62D-05 BMatP= 4.66D-04
 IDIUse=3 WtCom= 9.93D-01 WtEn= 6.97D-03
 Coeff-Com:  0.284D+00-0.921D+00 0.164D+01
 Coeff-En:   0.000D+00 0.000D+00 0.100D+01
 Coeff:      0.282D+00-0.915D+00 0.163D+01
 Gap=     0.335 Goal=   None    Shift=    0.000
 RMSDP=1.13D-03 MaxDP=6.15D-03 DE=-2.84D-03 OVMax= 8.98D-03

 Cycle   4  Pass 1  IDiag  3:
 E= 0.944580785015049     Delta-E=       -0.000219047069 Rises=F Damp=F
 DIIS: error= 2.78D-04 at cycle   4 NSaved=   4.
 NSaved= 4 IEnMin= 4 EnMin= 0.944580785015049     IErMin= 4 ErrMin= 2.78D-04
 ErrMax= 2.78D-04  0.00D+00 EMaxC= 1.00D-01 BMatC= 1.31D-06 BMatP= 2.62D-05
 IDIUse=3 WtCom= 9.97D-01 WtEn= 2.78D-03
 Coeff-Com: -0.117D+00 0.391D+00-0.831D+00 0.156D+01
 Coeff-En:   0.000D+00 0.000D+00 0.000D+00 0.100D+01
 Coeff:     -0.117D+00 0.390D+00-0.828D+00 0.155D+01
 Gap=     0.335 Goal=   None    Shift=    0.000
 RMSDP=2.88D-04 MaxDP=2.30D-03 DE=-2.19D-04 OVMax= 3.07D-03

 Cycle   5  Pass 1  IDiag  3:
 E= 0.944567371573427     Delta-E=       -0.000013413442 Rises=F Damp=F
 DIIS: error= 9.44D-05 at cycle   5 NSaved=   5.
 NSaved= 5 IEnMin= 5 EnMin= 0.944567371573427     IErMin= 5 ErrMin= 9.44D-05
 ErrMax= 9.44D-05  0.00D+00 EMaxC= 1.00D-01 BMatC= 1.21D-07 BMatP= 1.31D-06
 IDIUse=1 WtCom= 1.00D+00 WtEn= 0.00D+00
 Coeff-Com:  0.348D-01-0.118D+00 0.278D+00-0.793D+00 0.160D+01
 Coeff:      0.348D-01-0.118D+00 0.278D+00-0.793D+00 0.160D+01
 Gap=     0.335 Goal=   None    Shift=    0.000
 RMSDP=1.00D-04 MaxDP=8.91D-04 DE=-1.34D-05 OVMax= 1.16D-03

 Cycle   6  Pass 1  IDiag  3:
 E= 0.944566006570980     Delta-E=       -0.000001365002 Rises=F Damp=F
 DIIS: error= 2.21D-05 at cycle   6 NSaved=   6.
 NSaved= 6 IEnMin= 6 EnMin= 0.944566006570980     IErMin= 6 ErrMin= 2.21D-05
 ErrMax= 2.21D-05  0.00D+00 EMaxC= 1.00D-01 BMatC= 9.28D-09 BMatP= 1.21D-07
 IDIUse=1 WtCom= 1.00D+00 WtEn= 0.00D+00
 Coeff-Com: -0.967D-02 0.334D-01-0.902D-01 0.341D+00-0.953D+00 0.168D+01
 Coeff:     -0.967D-02 0.334D-01-0.902D-01 0.341D+00-0.953D+00 0.168D+01
 Gap=     0.335 Goal=   None    Shift=    0.000
 RMSDP=2.94D-05 MaxDP=2.49D-04 DE=-1.37D-06 OVMax= 3.65D-04

 Cycle   7  Pass 1  IDiag  3:
 E= 0.944565900984287     Delta-E=       -0.000000105587 Rises=F Damp=F
 DIIS: error= 3.89D-06 at cycle   7 NSaved=   7.
 NSaved= 7 IEnMin= 7 EnMin= 0.944565900984287     IErMin= 7 ErrMin= 3.89D-06
 ErrMax= 3.89D-06  0.00D+00 EMaxC= 1.00D-01 BMatC= 4.89D-10 BMatP= 9.28D-09
 IDIUse=1 WtCom= 1.00D+00 WtEn= 0.00D+00
 Coeff-Com:  0.224D-02-0.778D-02 0.225D-01-0.941D-01 0.286D+00-0.673D+00
 Coeff-Com:  0.146D+01
 Coeff:      0.224D-02-0.778D-02 0.225D-01-0.941D-01 0.286D+00-0.673D+00
 Coeff:      0.146D+01
 Gap=     0.335 Goal=   None    Shift=    0.000
 RMSDP=5.93D-06 MaxDP=4.55D-05 DE=-1.06D-07 OVMax= 6.95D-05

 Cycle   8  Pass 1  IDiag  3:
 E= 0.944565896331000     Delta-E=       -0.000000004653 Rises=F Damp=F
 DIIS: error= 7.00D-07 at cycle   8 NSaved=   8.
 NSaved= 8 IEnMin= 8 EnMin= 0.944565896331000     IErMin= 8 ErrMin= 7.00D-07
 ErrMax= 7.00D-07  0.00D+00 EMaxC= 1.00D-01 BMatC= 2.79D-11 BMatP= 4.89D-10
 IDIUse=1 WtCom= 1.00D+00 WtEn= 0.00D+00
 Coeff-Com: -0.165D-03 0.607D-03-0.232D-02 0.129D-01-0.443D-01 0.134D+00
 Coeff-Com: -0.497D+00 0.140D+01
 Coeff:     -0.165D-03 0.607D-03-0.232D-02 0.129D-01-0.443D-01 0.134D+00
 Coeff:     -0.497D+00 0.140D+01
 Gap=     0.335 Goal=   None    Shift=    0.000
 RMSDP=1.11D-06 MaxDP=6.51D-06 DE=-4.65D-09 OVMax= 9.37D-06

 Cycle   9  Pass 1  IDiag  3:
 E= 0.944565896112025     Delta-E=       -0.000000000219 Rises=F Damp=F
 DIIS: error= 1.77D-07 at cycle   9 NSaved=   9.
 NSaved= 9 IEnMin= 9 EnMin= 0.944565896112025     IErMin= 9 ErrMin= 1.77D-07
 ErrMax= 1.77D-07  0.00D+00 EMaxC= 1.00D-01 BMatC= 1.92D-12 BMatP= 2.79D-11
 IDIUse=1 WtCom= 1.00D+00 WtEn= 0.00D+00
 Coeff-Com: -0.492D-04 0.162D-03-0.265D-03-0.150D-03 0.255D-02-0.198D-01
 Coeff-Com:  0.136D+00-0.633D+00 0.151D+01
 Coeff:     -0.492D-04 0.162D-03-0.265D-03-0.150D-03 0.255D-02-0.198D-01
 Coeff:      0.136D+00-0.633D+00 0.151D+01
 Gap=     0.335 Goal=   None    Shift=    0.000
 RMSDP=2.91D-07 MaxDP=1.35D-06 DE=-2.19D-10 OVMax= 2.35D-06

 Cycle  10  Pass 1  IDiag  3:
 E= 0.944565896097387     Delta-E=       -0.000000000015 Rises=F Damp=F
 DIIS: error= 3.27D-08 at cycle  10 NSaved=  10.
 NSaved=10 IEnMin=10 EnMin= 0.944565896097387     IErMin=10 ErrMin= 3.27D-08
 ErrMax= 3.27D-08  0.00D+00 EMaxC= 1.00D-01 BMatC= 7.05D-14 BMatP= 1.92D-12
 IDIUse=1 WtCom= 1.00D+00 WtEn= 0.00D+00
 Coeff-Com:  0.332D-04-0.111D-03 0.244D-03-0.540D-03 0.808D-03 0.355D-02
 Coeff-Com: -0.428D-01 0.232D+00-0.684D+00 0.149D+01
 Coeff:      0.332D-04-0.111D-03 0.244D-03-0.540D-03 0.808D-03 0.355D-02
 Coeff:     -0.428D-01 0.232D+00-0.684D+00 0.149D+01
 Gap=     0.335 Goal=   None    Shift=    0.000
 RMSDP=5.24D-08 MaxDP=2.66D-07 DE=-1.46D-11 OVMax= 4.86D-07

 Cycle  11  Pass 1  IDiag  3:
 E= 0.944565896096819     Delta-E=       -0.000000000001 Rises=F Damp=F
 DIIS: error= 7.55D-09 at cycle  11 NSaved=  11.
 NSaved=11 IEnMin=11 EnMin= 0.944565896096819     IErMin=11 ErrMin= 7.55D-09
 ErrMax= 7.55D-09  0.00D+00 EMaxC= 1.00D-01 BMatC= 3.25D-15 BMatP= 7.05D-14
 IDIUse=1 WtCom= 1.00D+00 WtEn= 0.00D+00
 Coeff-Com: -0.133D-04 0.448D-04-0.103D-03 0.259D-03-0.469D-03-0.971D-03
 Coeff-Com:  0.152D-01-0.865D-01 0.266D+00-0.706D+00 0.151D+01
 Coeff:     -0.133D-04 0.448D-04-0.103D-03 0.259D-03-0.469D-03-0.971D-03
 Coeff:      0.152D-01-0.865D-01 0.266D+00-0.706D+00 0.151D+01
 Gap=     0.335 Goal=   None    Shift=    0.000
 RMSDP=1.16D-08 MaxDP=5.95D-08 DE=-5.68D-13 OVMax= 1.06D-07

 Cycle  12  Pass 1  IDiag  3:
 E= 0.944565896096833     Delta-E=        0.000000000000 Rises=F Damp=F
 DIIS: error= 1.74D-09 at cycle  12 NSaved=  12.
 NSaved=12 IEnMin=11 EnMin= 0.944565896096819     IErMin=12 ErrMin= 1.74D-09
 ErrMax= 1.74D-09  0.00D+00 EMaxC= 1.00D-01 BMatC= 2.11D-16 BMatP= 3.25D-15
 IDIUse=1 WtCom= 1.00D+00 WtEn= 0.00D+00
 Coeff-Com:  0.336D-05-0.114D-04 0.277D-04-0.791D-04 0.158D-03 0.178D-03
 Coeff-Com: -0.387D-02 0.231D-01-0.737D-01 0.216D+00-0.660D+00 0.150D+01
 Coeff:      0.336D-05-0.114D-04 0.277D-04-0.791D-04 0.158D-03 0.178D-03
 Coeff:     -0.387D-02 0.231D-01-0.737D-01 0.216D+00-0.660D+00 0.150D+01
 Gap=     0.335 Goal=   None    Shift=    0.000
 RMSDP=3.18D-09 MaxDP=1.65D-08 DE= 1.42D-14 OVMax= 3.26D-08

 Cycle  13  Pass 2  IDiag  1:
 SCF Done:  E(RAM1) =  0.944565896097     A.U. after   13 cycles
            NFock= 12  Conv=0.32D-08     -V/T= 1.0687
 KE=-1.374215730240D+01 PE=-1.546719969180D+02 EE= 7.697223147476D+01
 Leave Link  502 at Wed Mar 23 16:16:41 2016, MaxMem=    33554432 cpu:         0.0
 (Enter /opt/g09/g09/l701.exe)
 Compute integral first derivatives.
 ... and contract with generalized density number  0.
 Leave Link  701 at Wed Mar 23 16:16:41 2016, MaxMem=    33554432 cpu:         0.0
 (Enter /opt/g09/g09/l702.exe)
 L702 exits ... SP integral derivatives will be done elsewhere.
 Leave Link  702 at Wed Mar 23 16:16:41 2016, MaxMem=    33554432 cpu:         0.0
 (Enter /opt/g09/g09/l703.exe)
 Compute integral first derivatives, UseDBF=F ICtDFT=           0.
 Integral derivatives from FoFJK, PRISM(SPDF).
 Calling FoFJK, ICntrl=      2127 FMM=F ISym2X=0 I1Cent= 0 IOpClX= 0 NMat=1 NMatS=1 NMatT=0.
 FoFJK:  IHMeth= 8 ICntrl=    2127 DoSepK=F KAlg= 0 I1Cent=   0 FoldK=F
 IRaf=         0 NMat=   1 IRICut=       1 DoRegI=T DoRafI=F ISym2E= 0.
 FoFCou: FMM=F IPFlag=           0 FMFlag=      100000 FMFlg1=         800
         NFxFlg=           0 DoJE=F BraDBF=F KetDBF=F FulRan=T
         wScrn=  0.000000 ICntrl=    2127 IOpCl=  0 I1Cent=           0 NGrid=           0
         NMat0=    1 NMatS0=      1 NMatT0=    0 NMatD0=    1 NMtDS0=    0 NMtDT0=    0
 Symmetry not used in FoFCou.
 Leave Link  703 at Wed Mar 23 16:16:41 2016, MaxMem=    33554432 cpu:         0.0
 (Enter /opt/g09/g09/l716.exe)
 Dipole        = 1.64369493D-01-1.34432265D-03 9.79687056D-03
 ***** Axes restored to original set *****
 -------------------------------------------------------------------
 Center     Atomic                   Forces (Hartrees/Bohr)
 Number     Number              X              Y              Z
 -------------------------------------------------------------------
      1        6           0.011134639    0.001115181   -0.004512207
      2        6          -0.013800525    0.004361166    0.003539873
      3        6          -0.023644500   -0.007858684    0.005587677
      4        6           0.009853624   -0.008670762   -0.004115029
      5        1           0.001968533    0.001596619    0.000512942
      6        1           0.002175215    0.007802938   -0.001784527
      7        1           0.002691966   -0.002012785   -0.002525395
      8        1          -0.002716139    0.001197191    0.003824763
      9       16           0.012337188    0.002469136   -0.000528097
 -------------------------------------------------------------------
 Cartesian Forces:  Max     0.023644500 RMS     0.007413771
 Leave Link  716 at Wed Mar 23 16:16:41 2016, MaxMem=    33554432 cpu:         0.0
 (Enter /opt/g09/g09/l103.exe)

 GradGradGradGradGradGradGradGradGradGradGradGradGradGradGradGradGradGrad
 Berny optimization.
 Using GEDIIS/GDIIS optimizer.
 FormGI is forming the generalized inverse of G from B-inverse, IUseBI=4.
 Internal  Forces:  Max     0.013781986 RMS     0.003641521
 Search for a local minimum.
 Step number   3 out of a maximum of   48
 All quantities printed in internal units (Hartrees-Bohrs-Radians)
 RMS Force = .36415D-02 SwitMx=.10000D-02 MixMth= 1
 Mixed Optimization -- RFO/linear search
 Update second derivatives using D2CorX and points    2    3
 DE= -1.09D-02 DEPred=-1.12D-02 R= 9.73D-01
 TightC=F SS=  1.41D+00  RLast= 5.75D-01 DXNew= 8.4853D-01 1.7262D+00
 Trust test= 9.73D-01 RLast= 5.75D-01 DXMaxT set to 8.49D-01
 ITU=  1  1  0
 Use linear search instead of GDIIS.
     Eigenvalues ---    0.01303   0.01531   0.01800   0.02251   0.02597
     Eigenvalues ---    0.03154   0.13210   0.15985   0.15990   0.16434
     Eigenvalues ---    0.18789   0.22372   0.23494   0.27972   0.31158
     Eigenvalues ---    0.32442   0.35374   0.41280   0.45359   0.50485
     Eigenvalues ---    0.57062
 RFO step:  Lambda=-2.49773916D-03 EMin= 1.30292189D-02
 Quartic linear search produced a step of  0.15967.
 Iteration  1 RMS(Cart)=  0.02722746 RMS(Int)=  0.00128788
 Iteration  2 RMS(Cart)=  0.00082143 RMS(Int)=  0.00086908
 Iteration  3 RMS(Cart)=  0.00000113 RMS(Int)=  0.00086908
[...]
                                                                                                X  X                                 
                                                                                                X  X                                 
                                                                                                X  X                                 
                                                                                                X  X                                 
                                                                                                X                                    
                                                                                                X                                    
                                                                                                X                                    
                                                                                                X                                    
                                                                                                X                                    
                                                                                                X                                    
 
 ***** Axes restored to original set *****
 -------------------------------------------------------------------
 Center     Atomic                   Forces (Hartrees/Bohr)
 Number     Number              X              Y              Z
 -------------------------------------------------------------------
      1        6          -0.056646922    0.010738291   -0.039819731
      2        6          -0.050487216    0.015699589    0.037955388
      3        6          -0.085277419    0.069082771   -0.010869828
      4        6           0.069635647    0.019562311    0.027220653
      5        1          -0.023841921   -0.019705841   -0.003631520
      6        1           0.012796578   -0.038263383   -0.002688971
      7        1           0.000375316    0.018513945   -0.017100494
      8        1           0.052816291   -0.034736367    0.002949367
      9       16           0.080629646   -0.040891316    0.005985137
 -------------------------------------------------------------------
 Cartesian Forces:  Max     0.085277419 RMS     0.039784475
 Z-matrix is all fixed cartesians, so copy forces.
 Force constants in Cartesian coordinates: 
                1             2             3             4             5 
      1  0.556055D+00
      2 -0.406647D+00  0.441898D+00
      3  0.140112D-02  0.669052D-01  0.127354D+00
      4 -0.617056D-01  0.201775D+00 -0.608523D-01  0.172311D+00
      5 -0.165472D+00 -0.161501D+00 -0.345755D-02  0.256733D+00  0.556324D+00
      6 -0.324960D-01 -0.334844D-01 -0.661657D-01  0.295436D-01 -0.484616D-01
      7 -0.105740D+00 -0.394491D-01  0.251138D-01  0.922686D-01 -0.386378D-02
      8  0.643251D-01 -0.907706D-01 -0.125246D-02 -0.154088D-01 -0.652043D-01
      9  0.535126D-01  0.466610D-01  0.982623D-02 -0.567633D-01  0.779776D-02
     10 -0.144818D+00 -0.128831D+00  0.110848D-01  0.748709D-01 -0.845775D-01
     11  0.178363D+00 -0.191153D+00 -0.680101D-02 -0.230296D+00 -0.284995D-01
     12 -0.578386D-01 -0.357901D-01 -0.716548D-01  0.576941D-01 -0.942163D-02
     13 -0.608359D-03 -0.598515D-02  0.350618D-03 -0.792086D-03  0.980113D-03
     14 -0.201106D-01 -0.243411D-01  0.697854D-03 -0.481914D-02 -0.135289D-02
     15 -0.129913D-01 -0.163231D-01  0.128991D-01  0.166275D-01 -0.319206D-02
     16  0.444082D-02  0.909280D-02 -0.974526D-03 -0.803108D-02 -0.123849D-02
     17 -0.471315D-02 -0.590887D-02  0.865959D-04  0.498007D-02 -0.193300D-02
     18 -0.188143D-01 -0.267668D-01  0.875705D-02  0.212823D-01 -0.495006D-02
     19 -0.115571D-01 -0.269771D-01  0.237606D-02 -0.468342D-01 -0.461602D-01
     20 -0.167052D-02  0.512573D-04  0.172645D-02 -0.626132D-01 -0.279423D+00
     21 -0.109370D-01 -0.964465D-02  0.114869D-01  0.225806D-01  0.638866D-01
     22 -0.322994D+00  0.204811D+00  0.530831D-01 -0.419763D-01  0.635453D-02
     23  0.202511D+00 -0.147081D+00 -0.326473D-01 -0.560405D-02  0.652575D-02
     24  0.626550D-01 -0.272909D-01 -0.305605D-01 -0.801777D-02 -0.261297D-02
     25  0.869288D-01  0.192212D+00 -0.315828D-01 -0.180112D+00  0.372453D-01
     26  0.153416D+00  0.178807D+00 -0.252579D-01 -0.144748D+00 -0.249356D-01
     27  0.155069D-01  0.357323D-01 -0.194159D-02 -0.220929D-01  0.411118D-03
                6             7             8             9            10 
      6  0.129118D+00
      7 -0.521825D-02  0.536826D+00
      8 -0.812205D-02 -0.316710D+00  0.537130D+00
      9  0.359264D-02 -0.433848D-01  0.505329D-01  0.103875D+00
     10 -0.118550D-01 -0.496436D+00  0.214712D+00  0.751540D-01  0.768371D+00
     11  0.139632D-01  0.225813D+00 -0.110235D+00 -0.468201D-01  0.162861D-01
     12  0.178668D-01  0.188570D-01 -0.218401D-01 -0.473313D-01 -0.629505D-01
     13  0.463640D-03 -0.417424D-01 -0.898754D-02  0.327192D-02 -0.182856D+00
     14  0.465770D-03  0.575885D-02  0.630472D-02 -0.134888D-02 -0.906949D-01
     15 -0.520372D-03 -0.608273D-02 -0.507285D-03  0.151816D-01 -0.594645D-02
     16  0.193255D-04 -0.509211D-01  0.517055D-01  0.532057D-02 -0.122418D-01
     17 -0.271653D-03  0.523009D-01 -0.238272D+00 -0.207674D-01  0.129394D-01
     18 -0.629840D-02  0.417279D-02 -0.211597D-01 -0.520540D-01 -0.115155D-01
     19  0.122450D-01  0.798097D-03  0.251740D-02 -0.648859D-03 -0.425765D-03
     20  0.637441D-01  0.498295D-02  0.118339D-03 -0.178377D-02  0.711982D-02
     21 -0.608875D-01 -0.579989D-02  0.123091D-02  0.440540D-02 -0.222395D-02
     22  0.112766D-02  0.732521D-03 -0.751398D-03 -0.323865D-03 -0.225465D-02
     23 -0.146212D-02 -0.110867D-02 -0.222331D-02  0.109503D-02  0.258293D-01
     24  0.161111D-01  0.361815D-02 -0.441118D-03  0.304056D-03  0.160473D-02
     25  0.617009D-02  0.642152D-01  0.859729D-02 -0.361385D-01 -0.421010D-02
     26  0.136289D-01  0.722757D-01 -0.368473D-01 -0.353666D-01  0.272171D-01
     27 -0.328164D-01  0.872361D-02  0.155888D-02 -0.377996D-01  0.664750D-02
               11            12            13            14            15 
     11  0.609408D+00
     12  0.379971D-01  0.125106D+00
     13 -0.965823D-01 -0.931474D-03  0.228802D+00
     14 -0.114504D+00  0.122310D-02  0.112075D+00  0.136539D+00
     15  0.927039D-02 -0.620507D-01 -0.296906D-02 -0.106853D-02  0.350445D-01
     16  0.266759D-01  0.664400D-02  0.579477D-04 -0.464050D-05  0.488854D-03
     17 -0.128729D-01 -0.545551D-02  0.225166D-03  0.363333D-03 -0.343082D-04
     18  0.136161D-01  0.918900D-02  0.493944D-04  0.543045D-03 -0.373193D-02
     19 -0.342812D-02  0.860171D-03 -0.992512D-04 -0.330165D-03  0.219276D-04
     20 -0.111296D-01  0.190014D-02 -0.255565D-03 -0.388119D-03  0.873622D-03
     21  0.635755D-02 -0.449205D-02 -0.656093D-04  0.248638D-03 -0.954561D-03
     22  0.120236D-01  0.243542D-02  0.390282D-03 -0.112033D-03 -0.206039D-03
     23 -0.313169D-01 -0.301180D-02  0.466367D-04  0.111764D-03 -0.185687D-03
     24 -0.328385D-02  0.216053D-01  0.406712D-04 -0.287362D-03 -0.889019D-03
     25 -0.128856D+00  0.352304D-01 -0.315276D-02 -0.176251D-02  0.110572D-01
     26 -0.109698D+00  0.343990D-01 -0.151657D-02 -0.273263D-02  0.111670D-01
     27 -0.242983D-01  0.117611D-01 -0.210132D-03 -0.473624D-03  0.502127D-02
               16            17            18            19            20 
     16  0.768827D-01
     17 -0.644046D-01  0.276771D+00
     18 -0.825399D-02  0.298693D-01  0.353698D-01
     19  0.425391D-04  0.164530D-03  0.142354D-03  0.644422D-01
     20 -0.503595D-03 -0.880999D-04  0.162319D-02  0.597973D-01  0.316767D+00
     21  0.444931D-03 -0.315425D-03 -0.100314D-04 -0.128958D-01 -0.693243D-01
     22  0.508597D-05  0.151209D-03 -0.267597D-03  0.101819D-03 -0.149320D-03
     23  0.378504D-03 -0.235469D-03 -0.368599D-03 -0.912717D-04  0.521019D-03
     24 -0.446958D-03  0.469722D-03 -0.134545D-02 -0.356836D-03 -0.244887D-03
     25 -0.102352D-01 -0.164352D-02  0.132044D-01 -0.646853D-02 -0.670794D-02
     26 -0.217014D-01 -0.178230D-01  0.759346D-02  0.145077D-01 -0.264286D-01
     27 -0.324217D-02 -0.358137D-02  0.101238D-01 -0.174402D-02  0.148550D-02
               21            22            23            24            25 
     21  0.433376D-01
     22  0.133396D-03  0.366320D+00
     23 -0.134516D-03 -0.223216D+00  0.171998D+00
     24  0.105487D-02 -0.557933D-01  0.365806D-01 -0.349712D-02
     25  0.876336D-02 -0.324936D-03  0.125468D-02 -0.330400D-02  0.533588D-01
     26  0.769507D-02  0.887953D-03  0.169993D-02 -0.288923D-02 -0.100339D+00
     27  0.605925D-02 -0.188781D-03  0.134310D-03 -0.278330D-02 -0.339983D-02
               26            27 
     26  0.379582D-01
     27 -0.109687D-01  0.423758D-01
 Leave Link  716 at Wed Mar 23 16:16:43 2016, MaxMem=    33554432 cpu:         0.0
 (Enter /opt/g09/g09/l103.exe)

 GradGradGradGradGradGradGradGradGradGradGradGradGradGradGradGradGradGrad
 Berny optimization.
 Search for a local minimum.
 Step number   1 out of a maximum of    2
 All quantities printed in internal units (Hartrees-Bohrs-Radians)
 Second derivative matrix not updated -- analytic derivatives used.
 ITU=  0
     Eigenvalues ---   -0.64425  -0.01468   0.01841   0.03085   0.04505
     Eigenvalues ---    0.05803   0.06311   0.08707   0.12175   0.14075
     Eigenvalues ---    0.15526   0.18008   0.19785   0.24846   0.34818
     Eigenvalues ---    0.39129   0.55778   0.80827   0.89473   1.32325
     Eigenvalues ---    1.41978
 Eigenvalue     1 is  -6.44D-01 should be greater than     0.000000 Eigenvector:
                          X2        Y1        X9        Y9        X1
   1                    0.41663  -0.39115   0.38116   0.37576  -0.32882
                          X3        X4        Y2        Y4        Z4
   1                   -0.27622  -0.23593  -0.22198   0.18434  -0.13496
 Eigenvalue     2 is  -1.47D-02 should be greater than     0.000000 Eigenvector:
                          Z8        Z4        Z5        Z6        Z7
   1                    0.84186  -0.24539  -0.24386   0.23890  -0.20811
                          Z2        Z1        Z9        X8        Z3
   1                   -0.14962  -0.10947   0.10035   0.07348   0.06719
 Quadratic step=8.538D-01 exceeds max=3.000D-01 adjusted using Lamda=-2.787D-01.
 Angle between NR and scaled steps=  30.34 degrees.
 Angle between quadratic step and forces=  28.32 degrees.
 Linear search not attempted -- first point.
 TrRot=  0.004491  0.002499  0.002399  0.632862  0.002216 -0.631548
 Variable       Old X    -DE/DX   Delta X   Delta X   Delta X     New X
                                 (Linear)    (Quad)   (Total)
    X1        1.69745  -0.05665   0.00000  -0.05650  -0.05036   1.64709
    Y1       -1.26431   0.01074   0.00000   0.00148   0.00613  -1.25819
    Z1        0.08243  -0.03982   0.00000  -0.08625  -0.08513  -0.00271
    X2       -0.76022  -0.05049   0.00000  -0.10092  -0.09359  -0.85381
    Y2       -2.33576   0.01570   0.00000   0.05452   0.05578  -2.27998
    Z2       -0.16053   0.03796   0.00000   0.06826   0.07519  -0.08535
    X3       -0.65697  -0.08528   0.00000  -0.08281  -0.08122  -0.73819
    Y3        2.37262   0.06908   0.00000   0.04199   0.04371   2.41633
    Z3        0.18826  -0.01087   0.00000  -0.03488  -0.03432   0.15394
    X4        1.63746   0.06964   0.00000   0.02562   0.02818   1.66564
    Y4        1.39471   0.01956   0.00000   0.03374   0.03838   1.43309
    Z4       -0.08167   0.02722   0.00000   0.05179   0.04935  -0.03232
    X5        3.39119  -0.02384   0.00000  -0.02931  -0.02832   3.36287
    Y5        2.59359  -0.01971   0.00000  -0.03115  -0.02433   2.56926
    Z5       -0.07421  -0.00363   0.00000   0.00587  -0.00109  -0.07530
    X6       -1.23711   0.01280   0.00000   0.00839   0.00790  -1.22921
    Y6        4.39880  -0.03826   0.00000  -0.04429  -0.04286   4.35594
    Z6        0.42205  -0.00269   0.00000  -0.00216  -0.00326   0.41879
    X7       -1.15302   0.00038   0.00000  -0.01644  -0.00577  -1.15879
    Y7       -4.28141   0.01851   0.00000   0.03421   0.03561  -4.24580
    Z7        0.37458  -0.01710   0.00000  -0.04621  -0.03617   0.33841
    X8        3.25499   0.05282   0.00000   0.03626   0.04350   3.29849
    Y8       -2.28628  -0.03474   0.00000  -0.04504  -0.03845  -2.32473
    Z8       -0.19541   0.00295   0.00000   0.01709   0.01665  -0.17876
    X9       -3.06710   0.08063   0.00000   0.17568   0.17968  -2.88742
    Y9        0.09952  -0.04089   0.00000  -0.07234  -0.07397   0.02555
    Z9       -0.26596   0.00599   0.00000   0.01126   0.01879  -0.24717
         Item               Value     Threshold  Converged?
 Maximum Force            0.085277     0.000450     NO 
 RMS     Force            0.039784     0.000300     NO 
 Maximum Displacement     0.179684     0.001800     NO 
 RMS     Displacement     0.057544     0.001200     NO 
 Predicted change in Energy=-3.987066D-02
 GradGradGradGradGradGradGradGradGradGradGradGradGradGradGradGradGradGrad

 Leave Link  103 at Wed Mar 23 16:16:43 2016, MaxMem=    33554432 cpu:         0.0
 (Enter /opt/g09/g09/l9999.exe)
 1\1\GINC-LINUX-CBNE\Freq\RAM1-Full\STO-3G\C4H4S1\DUSTIN\23-Mar-2016\0\
 \#P AM1(Input,Print) CIS(Singlets,NStates=10) pop(full) freq\\best1\\0
 ,1\C,0.898254,-0.669046,0.043619\C,-0.402292,-1.236031,-0.084951\C,-0.
 347651,1.255536,0.099625\C,0.866508,0.73805,-0.043217\H,1.794539,1.372
 468,-0.039269\H,-0.65465,2.327747,0.223337\H,-0.610152,-2.265625,0.198
 217\H,1.722468,-1.209847,-0.103408\S,-1.623042,0.052663,-0.140742\\Ver
 sion=ES64L-G09RevD.01\State=1-A\HF=0.9887987\RMSD=6.754e-09\RMSF=3.978
 e-02\ZeroPoint=0.0625008\Thermal=0.0667072\Dipole=0.0046314,-0.1051188
 ,0.052003\DipoleDeriv=2.2597002,-0.9901887,0.5221514,2.8556443,-1.4896
 8,0.8320786,-0.4410568,0.1425251,-0.1828134,-2.4589889,0.9035501,-0.62
 14005,0.0217049,-0.7588664,0.024538,0.1793865,-0.2278722,-0.3471943,1.
 20725,0.190738,0.330503,0.4423967,-0.5384482,0.1080202,-0.35916,0.1203
 937,-0.5538149,0.8613437,-1.1092059,0.270234,-1.677263,1.3039083,-0.51
 28077,0.5871568,-0.0289771,-0.0049795,0.0340752,0.0039526,-0.013255,-0
 .0518787,0.1126998,-0.0114938,0.1346327,-0.0813377,0.1957589,0.0067004
 ,0.0261865,-0.018683,0.0058039,0.1459982,-0.0009954,0.1834569,-0.13985
 57,0.2958686,0.0632294,0.033765,-0.000331,-0.1000208,0.3143265,-0.0184
 147,0.1305723,0.0171922,0.2418628,0.1510831,-0.0395208,0.0171195,0.005
 091,0.1005176,-0.0012581,-0.0662401,0.0175858,0.1689431,-2.1243993,0.9
 807335,-0.4863406,-1.5014835,0.809549,-0.4196682,-0.3487392,0.1803319,
 0.1863716\Polar=83.1998136,-15.1774548,75.8720434,8.2236677,-1.3673653
 ,16.6179743\PG=C01 [X(C4H4S1)]\NImag=2\\0.55605461,-0.40664687,0.44189
 779,0.00140112,0.06690522,0.12735377,-0.06170561,0.20177511,-0.0608523
 4,0.17231112,-0.16547245,-0.16150066,-0.00345755,0.25673270,0.55632357
 ,-0.03249603,-0.03348445,-0.06616567,0.02954365,-0.04846159,0.12911754
 ,-0.10573998,-0.03944914,0.02511380,0.09226855,-0.00386378,-0.00521825
 ,0.53682574,0.06432505,-0.09077061,-0.00125246,-0.01540877,-0.06520432
 ,-0.00812205,-0.31670982,0.53713004,0.05351259,0.04666099,0.00982623,-
 0.05676326,0.00779776,0.00359264,-0.04338478,0.05053288,0.10387539,-0.
 14481809,-0.12883142,0.01108481,0.07487087,-0.08457746,-0.01185504,-0.
 49643553,0.21471224,0.07515400,0.76837053,0.17836276,-0.19115253,-0.00
 680101,-0.23029574,-0.02849953,0.01396317,0.22581328,-0.11023511,-0.04
 682008,0.01628606,0.60940773,-0.05783860,-0.03579015,-0.07165484,0.057
 69406,-0.00942163,0.01786676,0.01885696,-0.02184013,-0.04733132,-0.062
 95050,0.03799705,0.12510644,-0.00060836,-0.00598515,0.00035062,-0.0007
 9209,0.00098011,0.00046364,-0.04174243,-0.00898754,0.00327192,-0.18285
 550,-0.09658226,-0.00093147,0.22880223,-0.02011064,-0.02434112,0.00069
 785,-0.00481914,-0.00135289,0.00046577,0.00575885,0.00630472,-0.001348
 88,-0.09069489,-0.11450392,0.00122310,0.11207520,0.13653885,-0.0129912
 7,-0.01632315,0.01289910,0.01662751,-0.00319206,-0.00052037,-0.0060827
 3,-0.00050729,0.01518165,-0.00594645,0.00927039,-0.06205073,-0.0029690
 6,-0.00106853,0.03504451,0.00444082,0.00909280,-0.00097453,-0.00803108
 ,-0.00123849,0.00001933,-0.05092108,0.05170546,0.00532057,-0.01224184,
 0.02667587,0.00664400,0.00005795,-0.00000464,0.00048885,0.07688269,-0.
 00471315,-0.00590887,0.00008660,0.00498007,-0.00193300,-0.00027165,0.0
 5230094,-0.23827238,-0.02076738,0.01293941,-0.01287293,-0.00545551,0.0
 0022517,0.00036333,-0.00003431,-0.06440456,0.27677052,-0.01881426,-0.0
 2676683,0.00875705,0.02128232,-0.00495006,-0.00629840,0.00417279,-0.02
 115966,-0.05205403,-0.01151553,0.01361605,0.00918900,0.00004939,0.0005
 4305,-0.00373193,-0.00825399,0.02986935,0.03536978,-0.01155710,-0.0269
 7714,0.00237606,-0.04683418,-0.04616024,0.01224500,0.00079810,0.002517
 40,-0.00064886,-0.00042576,-0.00342812,0.00086017,-0.00009925,-0.00033
 017,0.00002193,0.00004254,0.00016453,0.00014235,0.06444224,-0.00167052
 ,0.00005126,0.00172645,-0.06261322,-0.27942308,0.06374413,0.00498295,0
 .00011834,-0.00178377,0.00711982,-0.01112958,0.00190014,-0.00025556,-0
 .00038812,0.00087362,-0.00050359,-0.00008810,0.00162319,0.05979726,0.3
 1676677,-0.01093699,-0.00964465,0.01148690,0.02258058,0.06388665,-0.06
 088752,-0.00579989,0.00123091,0.00440540,-0.00222395,0.00635755,-0.004
 49205,-0.00006561,0.00024864,-0.00095456,0.00044493,-0.00031543,-0.000
 01003,-0.01289578,-0.06932429,0.04333756,-0.32299402,0.20481139,0.0530
 8310,-0.04197629,0.00635453,0.00112766,0.00073252,-0.00075140,-0.00032
 387,-0.00225465,0.01202365,0.00243542,0.00039028,-0.00011203,-0.000206
 04,0.00000509,0.00015121,-0.00026760,0.00010182,-0.00014932,0.00013340
 ,0.36632021,0.20251088,-0.14708118,-0.03264726,-0.00560405,0.00652575,
 -0.00146212,-0.00110867,-0.00222331,0.00109503,0.02582929,-0.03131695,
 -0.00301180,0.00004664,0.00011176,-0.00018569,0.00037850,-0.00023547,-
 0.00036860,-0.00009127,0.00052102,-0.00013452,-0.22321604,0.17199841,0
 .06265504,-0.02729095,-0.03056048,-0.00801777,-0.00261297,0.01611112,0
 .00361815,-0.00044112,0.00030406,0.00160473,-0.00328385,0.02160532,0.0
 0004067,-0.00028736,-0.00088902,-0.00044696,0.00046972,-0.00134545,-0.
 00035684,-0.00024489,0.00105487,-0.05579333,0.03658062,-0.00349712,0.0
 8692882,0.19221158,-0.03158277,-0.18011223,0.03724534,0.00617009,0.064
 21518,0.00859729,-0.03613847,-0.00421010,-0.12885610,0.03523045,-0.003
 15276,-0.00176251,0.01105717,-0.01023522,-0.00164352,0.01320443,-0.006
 46853,-0.00670794,0.00876336,-0.00032494,0.00125468,-0.00330400,0.0533
 5880,0.15341552,0.17880661,-0.02525789,-0.14474760,-0.02493562,0.01362
 885,0.07227572,-0.03684729,-0.03536663,0.02721706,-0.10969784,0.034399
 04,-0.00151657,-0.00273263,0.01116696,-0.02170136,-0.01782303,0.007593
 46,0.01450772,-0.02642859,0.00769507,0.00088795,0.00169993,-0.00288923
 ,-0.10033913,0.03795821,0.01550687,0.03573232,-0.00194159,-0.02209286,
 0.00041112,-0.03281635,0.00872361,0.00155888,-0.03779965,0.00664750,-0
 .02429826,0.01176107,-0.00021013,-0.00047362,0.00502127,-0.00324217,-0
 .00358137,0.01012380,-0.00174402,0.00148550,0.00605925,-0.00018878,0.0
 0013431,-0.00278330,-0.00339983,-0.01096872,0.04237576\\0.05664692,-0.
 01073829,0.03981973,0.05048722,-0.01569959,-0.03795539,0.08527742,-0.0
 6908277,0.01086983,-0.06963565,-0.01956231,-0.02722065,0.02384192,0.01
 970584,0.00363152,-0.01279658,0.03826338,0.00268897,-0.00037532,-0.018
 51395,0.01710049,-0.05281629,0.03473637,-0.00294937,-0.08062965,0.0408
 9132,-0.00598514\\\@


 Age does not diminish the extreme disappointment of
 having a scoop of ice cream fall from the cone.
 -- Jim Fiebig
 Job cpu time:       0 days  0 hours  0 minutes  0.4 seconds.
 File lengths (MBytes):  RWF=      6 Int=      0 D2E=      0 Chk=      2 Scr=      1
 Normal termination of Gaussian 09 at Wed Mar 23 16:16:43 2016.
