 Entering Gaussian System, Link 0=g09
 Input=best.com
 Output=best.log
 Initial command:
 /home/dustin/Applications/g09/g09/l1.exe "/tmp/Gau-29025.inp" -scrdir="/tmp/"
 Entering Link 1 = /home/dustin/Applications/g09/g09/l1.exe PID=     29027.
  
 Copyright (c) 1988,1990,1992,1993,1995,1998,2003,2009,2013,
            Gaussian, Inc.  All Rights Reserved.
  
 This is part of the Gaussian(R) 09 program.  It is based on
 the Gaussian(R) 03 system (copyright 2003, Gaussian, Inc.),
 the Gaussian(R) 98 system (copyright 1998, Gaussian, Inc.),
 the Gaussian(R) 94 system (copyright 1995, Gaussian, Inc.),
 the Gaussian 92(TM) system (copyright 1992, Gaussian, Inc.),
 the Gaussian 90(TM) system (copyright 1990, Gaussian, Inc.),
 the Gaussian 88(TM) system (copyright 1988, Gaussian, Inc.),
 the Gaussian 86(TM) system (copyright 1986, Carnegie Mellon
 University), and the Gaussian 82(TM) system (copyright 1983,
 Carnegie Mellon University). Gaussian is a federally registered
 trademark of Gaussian, Inc.
  
 This software contains proprietary and confidential information,
 including trade secrets, belonging to Gaussian, Inc.
  
 This software is provided under written license and may be
 used, copied, transmitted, or stored only in accord with that
 written license.
  
 The following legend is applicable only to US Government
 contracts under FAR:
  
                    RESTRICTED RIGHTS LEGEND
  
 Use, reproduction and disclosure by the US Government is
 subject to restrictions as set forth in subparagraphs (a)
 and (c) of the Commercial Computer Software - Restricted
 Rights clause in FAR 52.227-19.
  
 Gaussian, Inc.
 340 Quinnipiac St., Bldg. 40, Wallingford CT 06492
  
  
 ---------------------------------------------------------------
 Warning -- This program may not be used in any manner that
 competes with the business of Gaussian, Inc. or will provide
 assistance to any competitor of Gaussian, Inc.  The licensee
 of this program is prohibited from giving any competitor of
 Gaussian, Inc. access to this program.  By using this program,
 the user acknowledges that Gaussian, Inc. is engaged in the
 business of creating and licensing software in the field of
 computational chemistry and represents and warrants to the
 licensee that it is not a competitor of Gaussian, Inc. and that
 it will not use this program in any manner prohibited above.
 ---------------------------------------------------------------
  

 Cite this work as:
 Gaussian 09, Revision D.01,
 M. J. Frisch, G. W. Trucks, H. B. Schlegel, G. E. Scuseria, 
 M. A. Robb, J. R. Cheeseman, G. Scalmani, V. Barone, B. Mennucci, 
 G. A. Petersson, H. Nakatsuji, M. Caricato, X. Li, H. P. Hratchian, 
 A. F. Izmaylov, J. Bloino, G. Zheng, J. L. Sonnenberg, M. Hada, 
 M. Ehara, K. Toyota, R. Fukuda, J. Hasegawa, M. Ishida, T. Nakajima, 
 Y. Honda, O. Kitao, H. Nakai, T. Vreven, J. A. Montgomery, Jr., 
 J. E. Peralta, F. Ogliaro, M. Bearpark, J. J. Heyd, E. Brothers, 
 K. N. Kudin, V. N. Staroverov, T. Keith, R. Kobayashi, J. Normand, 
 K. Raghavachari, A. Rendell, J. C. Burant, S. S. Iyengar, J. Tomasi, 
 M. Cossi, N. Rega, J. M. Millam, M. Klene, J. E. Knox, J. B. Cross, 
 V. Bakken, C. Adamo, J. Jaramillo, R. Gomperts, R. E. Stratmann, 
 O. Yazyev, A. J. Austin, R. Cammi, C. Pomelli, J. W. Ochterski, 
 R. L. Martin, K. Morokuma, V. G. Zakrzewski, G. A. Voth, 
 P. Salvador, J. J. Dannenberg, S. Dapprich, A. D. Daniels, 
 O. Farkas, J. B. Foresman, J. V. Ortiz, J. Cioslowski, 
 and D. J. Fox, Gaussian, Inc., Wallingford CT, 2013.
 
 ******************************************
 Gaussian 09:  ES64L-G09RevD.01 24-Apr-2013
                 5-Apr-2016 
 ******************************************
 %chk=best
 -----------------------
 #P AM1(Input,Print) opt
 -----------------------
 1/14=-1,18=20,19=15,26=1,38=1/1,3;
 2/9=110,12=2,17=6,18=5,40=1/2;
 3/5=2,16=1,25=1,41=700000,71=1,135=100,136=1/1,2,3;
 4/35=1/1;
 5/5=2,35=1,38=5/2;
 6/7=2,8=2,9=2,10=2,28=1/1;
 7//1,2,3,16;
 1/14=-1,18=20,19=15,26=1/3(2);
 2/9=110/2;
 99//99;
 2/9=110/2;
 3/5=2,16=1,25=1,41=700000,71=1,135=20,136=1/1,2,3;
 4/5=5,16=3,35=1/1;
 5/5=2,35=1,38=5/2;
 7//1,2,3,16;
 1/14=-1,18=20,19=15,26=1/3(-5);
 2/9=110/2;
 6/7=2,8=2,9=2,10=2,19=2,28=1/1;
 99/9=1/99;
 Leave Link    1 at Tue Apr  5 11:44:11 2016, MaxMem=           0 cpu:         0.0
 (Enter /home/dustin/Applications/g09/g09/l101.exe)
 ----
 best
 ----
 Symbolic Z-matrix:
 Charge =  0 Multiplicity = 1
 6                     0.87736  -0.69653  -0.09523 
 6                    -0.42146  -1.2618   -0.00533 
 6                    -0.35494   1.27527   0.03046 
 6                     0.85768   0.72853  -0.0587 
 1                     1.76086   1.37161   0.05182 
 1                    -0.57314   2.32229   0.20356 
 1                    -0.64055  -2.25022   0.04486 
 1                     1.83417  -1.30552  -0.06085 
 16                   -1.58263   0.07745  -0.0458 
 
 NAtoms=      9 NQM=        9 NQMF=       0 NMMI=      0 NMMIF=      0
                NMic=       0 NMicF=      0.
                    Isotopes and Nuclear Properties:
 (Nuclear quadrupole moments (NQMom) in fm**2, nuclear magnetic moments (NMagM)
  in nuclear magnetons)

  Atom         1           2           3           4           5           6           7           8           9
 IAtWgt=          12          12          12          12           1           1           1           1          32
 AtmWgt=  12.0000000  12.0000000  12.0000000  12.0000000   1.0078250   1.0078250   1.0078250   1.0078250  31.9720718
 NucSpn=           0           0           0           0           1           1           1           1           0
 AtZEff=   0.0000000   0.0000000   0.0000000   0.0000000   0.0000000   0.0000000   0.0000000   0.0000000   0.0000000
 NQMom=    0.0000000   0.0000000   0.0000000   0.0000000   0.0000000   0.0000000   0.0000000   0.0000000   0.0000000
 NMagM=    0.0000000   0.0000000   0.0000000   0.0000000   2.7928460   2.7928460   2.7928460   2.7928460   0.0000000
 AtZNuc=   6.0000000   6.0000000   6.0000000   6.0000000   1.0000000   1.0000000   1.0000000   1.0000000  16.0000000
 Leave Link  101 at Tue Apr  5 11:44:11 2016, MaxMem=    33554432 cpu:         0.0
 (Enter /home/dustin/Applications/g09/g09/l103.exe)

 GradGradGradGradGradGradGradGradGradGradGradGradGradGradGradGradGradGrad
 Berny optimization.
 Initialization pass.
                           ----------------------------
                           !    Initial Parameters    !
                           ! (Angstroms and Degrees)  !
 --------------------------                            --------------------------
 ! Name  Definition              Value          Derivative Info.                !
 --------------------------------------------------------------------------------
 ! R1    R(1,2)                  1.4193         estimate D2E/DX2                !
 ! R2    R(1,4)                  1.4257         estimate D2E/DX2                !
 ! R3    R(1,8)                  1.1347         estimate D2E/DX2                !
 ! R4    R(2,7)                  1.0136         estimate D2E/DX2                !
 ! R5    R(2,9)                  1.773          estimate D2E/DX2                !
 ! R6    R(3,4)                  1.3332         estimate D2E/DX2                !
 ! R7    R(3,6)                  1.0834         estimate D2E/DX2                !
 ! R8    R(3,9)                  1.7169         estimate D2E/DX2                !
 ! R9    R(4,5)                  1.1142         estimate D2E/DX2                !
 ! A1    A(2,1,4)              112.5721         estimate D2E/DX2                !
 ! A2    A(2,1,8)              123.7764         estimate D2E/DX2                !
 ! A3    A(4,1,8)              123.1844         estimate D2E/DX2                !
 ! A4    A(1,2,7)              126.1053         estimate D2E/DX2                !
 ! A5    A(1,2,9)              107.2786         estimate D2E/DX2                !
 ! A6    A(7,2,9)              126.5936         estimate D2E/DX2                !
 ! A7    A(4,3,6)              126.1705         estimate D2E/DX2                !
 ! A8    A(4,3,9)              111.1814         estimate D2E/DX2                !
 ! A9    A(6,3,9)              122.4999         estimate D2E/DX2                !
 ! A10   A(1,4,3)              115.0998         estimate D2E/DX2                !
 ! A11   A(1,4,5)              124.629          estimate D2E/DX2                !
 ! A12   A(3,4,5)              119.6023         estimate D2E/DX2                !
 ! A13   A(2,9,3)               93.306          estimate D2E/DX2                !
 ! D1    D(4,1,2,7)           -176.028          estimate D2E/DX2                !
 ! D2    D(4,1,2,9)              5.6108         estimate D2E/DX2                !
 ! D3    D(8,1,2,7)             -3.664          estimate D2E/DX2                !
 ! D4    D(8,1,2,9)            177.9748         estimate D2E/DX2                !
 ! D5    D(2,1,4,3)             -0.9999         estimate D2E/DX2                !
 ! D6    D(2,1,4,5)            169.5482         estimate D2E/DX2                !
 ! D7    D(8,1,4,3)           -173.4163         estimate D2E/DX2                !
 ! D8    D(8,1,4,5)             -2.8681         estimate D2E/DX2                !
 ! D9    D(1,2,9,3)             -6.8387         estimate D2E/DX2                !
 ! D10   D(7,2,9,3)            174.8104         estimate D2E/DX2                !
 ! D11   D(6,3,4,1)            171.2366         estimate D2E/DX2                !
 ! D12   D(6,3,4,5)              0.1773         estimate D2E/DX2                !
 ! D13   D(9,3,4,1)             -4.4013         estimate D2E/DX2                !
 ! D14   D(9,3,4,5)           -175.4606         estimate D2E/DX2                !
 ! D15   D(4,3,9,2)              6.566          estimate D2E/DX2                !
 ! D16   D(6,3,9,2)           -169.2592         estimate D2E/DX2                !
 --------------------------------------------------------------------------------
 Trust Radius=3.00D-01 FncErr=1.00D-07 GrdErr=1.00D-07
 Number of steps in this run=     48 maximum allowed number of steps=    100.
 GradGradGradGradGradGradGradGradGradGradGradGradGradGradGradGradGradGrad

 Leave Link  103 at Tue Apr  5 11:44:11 2016, MaxMem=    33554432 cpu:         0.0
 (Enter /home/dustin/Applications/g09/g09/l202.exe)
                          Input orientation:                          
 ---------------------------------------------------------------------
 Center     Atomic      Atomic             Coordinates (Angstroms)
 Number     Number       Type             X           Y           Z
 ---------------------------------------------------------------------
      1          6           0        0.877357   -0.696525   -0.095228
      2          6           0       -0.421460   -1.261804   -0.005325
      3          6           0       -0.354943    1.275266    0.030459
      4          6           0        0.857680    0.728534   -0.058696
      5          1           0        1.760856    1.371607    0.051820
      6          1           0       -0.573142    2.322290    0.203555
      7          1           0       -0.640547   -2.250218    0.044858
      8          1           0        1.834174   -1.305522   -0.060848
      9         16           0       -1.582626    0.077454   -0.045800
 ---------------------------------------------------------------------
                    Distance matrix (angstroms):
                    1          2          3          4          5
     1  C    0.000000
     2  C    1.419348   0.000000
     3  C    2.328588   2.538194   0.000000
     4  C    1.425663   2.366536   1.333161   0.000000
     5  H    2.253744   3.420617   2.118099   1.114219   0.000000
     6  H    3.362508   3.593378   1.083435   2.157796   2.524751
     7  H    2.176607   1.013647   3.537063   3.335921   4.345619
     8  H    1.134706   2.256741   3.385415   2.256309   2.680502
     9  S    2.579342   1.773008   1.716908   2.525701   3.586535
                    6          7          8          9
     6  H    0.000000
     7  H    4.575758   0.000000
     8  H    4.361892   2.651013   0.000000
     9  S    2.473969   2.512725   3.686105   0.000000
 Stoichiometry    C4H4S
 Framework group  C1[X(C4H4S)]
 Deg. of freedom    21
 Full point group                 C1      NOp   1
 Largest Abelian subgroup         C1      NOp   1
 Largest concise Abelian subgroup C1      NOp   1
                         Standard orientation:                         
 ---------------------------------------------------------------------
 Center     Atomic      Atomic             Coordinates (Angstroms)
 Number     Number       Type             X           Y           Z
 ---------------------------------------------------------------------
      1          6           0        1.305624   -0.666900   -0.040805
      2          6           0        0.037930   -1.298222    0.053706
      3          6           0       -0.030416    1.238945    0.030432
      4          6           0        1.210148    0.755560   -0.037829
      5          1           0        2.077068    1.448128    0.063569
      6          1           0       -0.305165    2.276597    0.177478
      7          1           0       -0.128843   -2.295468    0.125596
      8          1           0        2.293077   -1.223199    0.014194
      9         16           0       -1.192241   -0.023897   -0.025866
 ---------------------------------------------------------------------
 Rotational constants (GHZ):      7.7562007      5.4202775      3.1967999
 Leave Link  202 at Tue Apr  5 11:44:11 2016, MaxMem=    33554432 cpu:         0.0
 (Enter /home/dustin/Applications/g09/g09/l301.exe)

 Semi-emprical parameters in input format:
 Method=8 CoreType=1 PeptideFC=0.0114505045 RIJScale=0.5291772086
 ****
 H       
 PQN=1 NValence=1 F0ss=0.4721553327 ZetaOverlap=1.1880780000 U=-0.4442910774
 Beta=-0.2268825074 CoreKO=1.0589197790 KON=0,0,0,1.0204364545 KON=1,0,1,1.0589197790
 KON=0,1,1,1.0589197790 KON=2,1,1,1.1187900186 EISol=-0.4188110042 EHeat=0.0830298228
 Alpha=1.5252601686
 GCore=0.0085277107,1.4001425905,2.2676713595
 GCore=0.0003534810,1.4001425905,3.4015070392
 GCore=-0.0012733648,0.5600570362,3.9684248791
 ****
 C       
 PQN=2,2 NValence=4 F0ss=0.4494442496 F0sp=0.4541392960 F0pp=0.3869599554 F2pp=0.1898715146
 G1sp=0.2679025821
 ZetaOverlap=1.8086650000,1.6851160000
 U=-1.9120180828,-1.4557965594
 Beta=-0.5833272394,-0.2836784428 DDN=0,1,0.7507598514 DDN=1,1,0.7268015000
 CoreKO=1.1124284736 KON=0,0,0,1.1124284736 KON=1,0,1,0.8219701441 KON=0,1,1,1.1124284736
 KON=2,1,1,0.7085077381 EISol=-4.4398989268 EHeat=0.2723305520 Alpha=1.4014062429
 DipHyp=1.5014333191
 GCore=0.0008004091,1.4001425905,3.0235618126
 GCore=0.0031892455,1.5034089780,3.4959933458
 GCore=-0.0013931594,1.4001425905,3.8739385724
 GCore=-0.0000875022,1.4236098352,5.0077742521
 ****
 S       
 PQN=3,3 NValence=6 F0ss=0.4331396397 F0sp=0.3183640731 F0pp=0.3136271218 F2pp=0.3456917167
 G1sp=0.2791629797
 ZetaOverlap=2.3507968292,1.6672630000,0.9900384765
 U=-2.0834683120,-1.7903186861
 Beta=-0.1440781557,-0.2905136336 DDN=0,1,0.9004265000 DDN=1,1,1.0036329000
 CoreKO=1.1543033468 KON=0,0,0,1.1598015916 KON=1,0,1,0.8047915935 KON=0,1,1,1.1543033468
 KON=2,1,1,0.7746001785 EISol=-7.0460287497 EHeat=0.1058151363 Alpha=1.3026480172
 DipHyp=1.8007493954
 GCore=-0.0333656337,1.2870452277,1.3506722212
 GCore=-0.0008431297,1.6104168626,2.8408498620
 GCore=0.0008818716,3.7964407093,3.5205627774
 ****
 
 Standard basis: VSTO-6G (5D, 7F)
 Ernie: Thresh=  0.10000D-02 Tol=  0.10000D-05 Strict=F.
  NNHCO=     0 NNPyr=     0 NCTC=     0               EPep=         0.000000000
    EC=        63.254097455  ECS=         1.619119152   EG=         0.147166550
   EHC=         0.000000000  EAt=       -26.480868474  AtH=         1.527256636
 EPDDG=         0.000000000  ECC=        65.020383156 EAtT=        28.008125109
 There are    24 symmetry adapted cartesian basis functions of A   symmetry.
 There are    24 symmetry adapted basis functions of A   symmetry.
    24 basis functions,   144 primitive gaussians,    24 cartesian basis functions
    13 alpha electrons       13 beta electrons
       nuclear repulsion energy        93.0285082653 Hartrees.



 Warning!  S  atom    9 may be hypervalent but has no d functions.



 IExCor=    0 DFT=F Ex=HF Corr=None ExCW=0 ScaHFX=  1.000000
 ScaDFX=  1.000000  1.000000  1.000000  1.000000 ScalE2=  1.000000  1.000000
 IRadAn=      0 IRanWt=     -1 IRanGd=            0 ICorTp=0 IEmpDi=  4
 Integral buffers will be    131072 words long.
 Regular integral format.
 Two-electron integral symmetry is turned off.
 Leave Link  301 at Tue Apr  5 11:44:11 2016, MaxMem=    33554432 cpu:         0.0
 (Enter /home/dustin/Applications/g09/g09/l302.exe)
 Do NDO integrals.
 NPDir=0 NMtPBC=     1 NCelOv=     1 NCel=       1 NClECP=     1 NCelD=      1
         NCelK=      1 NCelE2=     1 NClLst=     1 CellRange=     0.0.
 One-electron integrals computed using PRISM.
 NBasis=    24 RedAO= F EigKep=  0.00D+00  NBF=    24
 NBsUse=    24 1.00D-04 EigRej=  0.00D+00 NBFU=    24
 Leave Link  302 at Tue Apr  5 11:44:11 2016, MaxMem=    33554432 cpu:         0.0
 (Enter /home/dustin/Applications/g09/g09/l303.exe)
 DipDrv:  MaxL=1.
 Leave Link  303 at Tue Apr  5 11:44:11 2016, MaxMem=    33554432 cpu:         0.0
 (Enter /home/dustin/Applications/g09/g09/l401.exe)
 Simple Huckel Guess.
 JPrj=0 DoOrth=F DoCkMO=F.
 Leave Link  401 at Tue Apr  5 11:44:11 2016, MaxMem=    33554432 cpu:         0.0
 (Enter /home/dustin/Applications/g09/g09/l502.exe)
 Closed shell SCF:
 Using DIIS extrapolation, IDIIS=  1040.
 Overlap will be assumed to be unity.
 Two-electron integral symmetry not used.
 Keep J ints in memory in canonical form, NReq=888082.
 IVT=       79475 IEndB=       79475 NGot=    33554432 MDV=    33473473
 LenX=    33473473 LenY=    33472456
 Requested convergence on RMS density matrix=1.00D-08 within 128 cycles.
 Requested convergence on MAX density matrix=1.00D-06.
 Requested convergence on             energy=1.00D-06.
 No special actions if energy rises.
 FoFCou: FMM=F IPFlag=           0 FMFlag=           0 FMFlg1=           0
         NFxFlg=           0 DoJE=F BraDBF=F KetDBF=F FulRan=T
         wScrn=  0.000000 ICntrl=     600 IOpCl=  2 I1Cent=           0 NGrid=           0
         NMat0=    1 NMatS0=     54 NMatT0=    0 NMatD0=    1 NMtDS0=    0 NMtDT0=    0
 Symmetry not used in FoFCou.

 Cycle   1  Pass 1  IDiag  1:
 E= 0.682164552943448    
 DIIS: error= 2.90D-02 at cycle   1 NSaved=   1.
 NSaved= 1 IEnMin= 1 EnMin= 0.682164552943448     IErMin= 1 ErrMin= 2.90D-02
 ErrMax= 2.90D-02  0.00D+00 EMaxC= 1.00D-01 BMatC= 3.57D-02 BMatP= 3.57D-02
 IDIUse=3 WtCom= 7.10D-01 WtEn= 2.90D-01
 Coeff-Com:  0.100D+01
 Coeff-En:   0.100D+01
 Coeff:      0.100D+01
 GapD=    2.000 DampG=2.000 DampE=0.500 DampFc=1.0000 IDamp=-1.
 RMSDP=1.53D-02 MaxDP=1.25D-01              OVMax= 0.00D+00

 Cycle   2  Pass 1  IDiag  1:
 E= 0.562304462300844     Delta-E=       -0.119860090643 Rises=F Damp=F
 DIIS: error= 1.09D-02 at cycle   2 NSaved=   2.
 NSaved= 2 IEnMin= 2 EnMin= 0.562304462300844     IErMin= 2 ErrMin= 1.09D-02
 ErrMax= 1.09D-02  0.00D+00 EMaxC= 1.00D-01 BMatC= 4.11D-03 BMatP= 3.57D-02
 IDIUse=3 WtCom= 8.91D-01 WtEn= 1.09D-01
 Coeff-Com: -0.437D+00 0.144D+01
 Coeff-En:   0.000D+00 0.100D+01
 Coeff:     -0.389D+00 0.139D+01
 RMSDP=7.35D-03 MaxDP=4.76D-02 DE=-1.20D-01 OVMax= 0.00D+00

 Cycle   3  Pass 1  IDiag  3:
 E= 0.545026259262741     Delta-E=       -0.017278203038 Rises=F Damp=F
 DIIS: error= 1.54D-03 at cycle   3 NSaved=   3.
 NSaved= 3 IEnMin= 3 EnMin= 0.545026259262741     IErMin= 3 ErrMin= 1.54D-03
 ErrMax= 1.54D-03  0.00D+00 EMaxC= 1.00D-01 BMatC= 1.24D-04 BMatP= 4.11D-03
 IDIUse=3 WtCom= 9.85D-01 WtEn= 1.54D-02
 Coeff-Com:  0.352D-01-0.235D+00 0.120D+01
 Coeff-En:   0.000D+00 0.000D+00 0.100D+01
 Coeff:      0.346D-01-0.231D+00 0.120D+01
 Gap=     0.347 Goal=   None    Shift=    0.000
 RMSDP=1.70D-03 MaxDP=1.01D-02 DE=-1.73D-02 OVMax= 1.75D-02

 Cycle   4  Pass 1  IDiag  3:
 E= 0.544224899223124     Delta-E=       -0.000801360040 Rises=F Damp=F
 DIIS: error= 7.76D-04 at cycle   4 NSaved=   4.
 NSaved= 4 IEnMin= 4 EnMin= 0.544224899223124     IErMin= 4 ErrMin= 7.76D-04
 ErrMax= 7.76D-04  0.00D+00 EMaxC= 1.00D-01 BMatC= 1.27D-05 BMatP= 1.24D-04
 IDIUse=3 WtCom= 9.92D-01 WtEn= 7.76D-03
 Coeff-Com:  0.933D-02 0.441D-02-0.485D+00 0.147D+01
 Coeff-En:   0.000D+00 0.000D+00 0.000D+00 0.100D+01
 Coeff:      0.926D-02 0.438D-02-0.481D+00 0.147D+01
 Gap=     0.349 Goal=   None    Shift=    0.000
 RMSDP=8.10D-04 MaxDP=6.32D-03 DE=-8.01D-04 OVMax= 9.21D-03

 Cycle   5  Pass 1  IDiag  3:
 E= 0.544107845456210     Delta-E=       -0.000117053767 Rises=F Damp=F
 DIIS: error= 3.18D-04 at cycle   5 NSaved=   5.
 NSaved= 5 IEnMin= 5 EnMin= 0.544107845456210     IErMin= 5 ErrMin= 3.18D-04
 ErrMax= 3.18D-04  0.00D+00 EMaxC= 1.00D-01 BMatC= 1.17D-06 BMatP= 1.27D-05
 IDIUse=3 WtCom= 9.97D-01 WtEn= 3.18D-03
 Coeff-Com: -0.102D-01 0.985D-02 0.355D+00-0.126D+01 0.191D+01
 Coeff-En:   0.000D+00 0.000D+00 0.000D+00 0.000D+00 0.100D+01
 Coeff:     -0.101D-01 0.982D-02 0.354D+00-0.126D+01 0.190D+01
 Gap=     0.350 Goal=   None    Shift=    0.000
 RMSDP=3.20D-04 MaxDP=3.09D-03 DE=-1.17D-04 OVMax= 3.79D-03

 Cycle   6  Pass 1  IDiag  3:
 E= 0.544094691580355     Delta-E=       -0.000013153876 Rises=F Damp=F
 DIIS: error= 4.84D-05 at cycle   6 NSaved=   6.
 NSaved= 6 IEnMin= 6 EnMin= 0.544094691580355     IErMin= 6 ErrMin= 4.84D-05
 ErrMax= 4.84D-05  0.00D+00 EMaxC= 1.00D-01 BMatC= 4.54D-08 BMatP= 1.17D-06
 IDIUse=1 WtCom= 1.00D+00 WtEn= 0.00D+00
 Coeff-Com:  0.293D-02-0.255D-02-0.106D+00 0.362D+00-0.643D+00 0.139D+01
 Coeff:      0.293D-02-0.255D-02-0.106D+00 0.362D+00-0.643D+00 0.139D+01
 Gap=     0.350 Goal=   None    Shift=    0.000
 RMSDP=5.65D-05 MaxDP=5.15D-04 DE=-1.32D-05 OVMax= 7.15D-04

 Cycle   7  Pass 1  IDiag  3:
 E= 0.544094265927043     Delta-E=       -0.000000425653 Rises=F Damp=F
 DIIS: error= 6.63D-06 at cycle   7 NSaved=   7.
 NSaved= 7 IEnMin= 7 EnMin= 0.544094265927043     IErMin= 7 ErrMin= 6.63D-06
 ErrMax= 6.63D-06  0.00D+00 EMaxC= 1.00D-01 BMatC= 2.63D-09 BMatP= 4.54D-08
 IDIUse=1 WtCom= 1.00D+00 WtEn= 0.00D+00
 Coeff-Com: -0.202D-03-0.460D-03 0.150D-01-0.392D-01 0.613D-01-0.322D+00
 Coeff-Com:  0.129D+01
 Coeff:     -0.202D-03-0.460D-03 0.150D-01-0.392D-01 0.613D-01-0.322D+00
 Coeff:      0.129D+01
 Gap=     0.350 Goal=   None    Shift=    0.000
 RMSDP=1.07D-05 MaxDP=7.69D-05 DE=-4.26D-07 OVMax= 1.14D-04

 Cycle   8  Pass 1  IDiag  3:
 E= 0.544094246448125     Delta-E=       -0.000000019479 Rises=F Damp=F
 DIIS: error= 1.87D-06 at cycle   8 NSaved=   8.
 NSaved= 8 IEnMin= 8 EnMin= 0.544094246448125     IErMin= 8 ErrMin= 1.87D-06
 ErrMax= 1.87D-06  0.00D+00 EMaxC= 1.00D-01 BMatC= 2.05D-10 BMatP= 2.63D-09
 IDIUse=1 WtCom= 1.00D+00 WtEn= 0.00D+00
 Coeff-Com: -0.474D-04 0.278D-03-0.564D-03-0.393D-02 0.108D-01 0.750D-01
 Coeff-Com: -0.618D+00 0.154D+01
 Coeff:     -0.474D-04 0.278D-03-0.564D-03-0.393D-02 0.108D-01 0.750D-01
 Coeff:     -0.618D+00 0.154D+01
 Gap=     0.350 Goal=   None    Shift=    0.000
 RMSDP=2.94D-06 MaxDP=1.99D-05 DE=-1.95D-08 OVMax= 2.31D-05

 Cycle   9  Pass 1  IDiag  3:
 E= 0.544094244827136     Delta-E=       -0.000000001621 Rises=F Damp=F
 DIIS: error= 5.04D-07 at cycle   9 NSaved=   9.
 NSaved= 9 IEnMin= 9 EnMin= 0.544094244827136     IErMin= 9 ErrMin= 5.04D-07
 ErrMax= 5.04D-07  0.00D+00 EMaxC= 1.00D-01 BMatC= 1.49D-11 BMatP= 2.05D-10
 IDIUse=1 WtCom= 1.00D+00 WtEn= 0.00D+00
 Coeff-Com:  0.394D-04-0.130D-03-0.471D-03 0.394D-02-0.831D-02-0.211D-01
 Coeff-Com:  0.239D+00-0.774D+00 0.156D+01
 Coeff:      0.394D-04-0.130D-03-0.471D-03 0.394D-02-0.831D-02-0.211D-01
 Coeff:      0.239D+00-0.774D+00 0.156D+01
 Gap=     0.350 Goal=   None    Shift=    0.000
 RMSDP=9.28D-07 MaxDP=5.11D-06 DE=-1.62D-09 OVMax= 1.19D-05

 Cycle  10  Pass 1  IDiag  3:
 E= 0.544094244676529     Delta-E=       -0.000000000151 Rises=F Damp=F
 DIIS: error= 2.09D-07 at cycle  10 NSaved=  10.
 NSaved=10 IEnMin=10 EnMin= 0.544094244676529     IErMin=10 ErrMin= 2.09D-07
 ErrMax= 2.09D-07  0.00D+00 EMaxC= 1.00D-01 BMatC= 1.85D-12 BMatP= 1.49D-11
 IDIUse=1 WtCom= 1.00D+00 WtEn= 0.00D+00
 Coeff-Com: -0.122D-04 0.168D-04 0.378D-03-0.148D-02 0.247D-02-0.235D-03
 Coeff-Com: -0.256D-01 0.136D+00-0.614D+00 0.150D+01
 Coeff:     -0.122D-04 0.168D-04 0.378D-03-0.148D-02 0.247D-02-0.235D-03
 Coeff:     -0.256D-01 0.136D+00-0.614D+00 0.150D+01
 Gap=     0.350 Goal=   None    Shift=    0.000
 RMSDP=3.90D-07 MaxDP=2.34D-06 DE=-1.51D-10 OVMax= 5.92D-06

 Cycle  11  Pass 1  IDiag  3:
 E= 0.544094244652783     Delta-E=       -0.000000000024 Rises=F Damp=F
 DIIS: error= 9.46D-08 at cycle  11 NSaved=  11.
 NSaved=11 IEnMin=11 EnMin= 0.544094244652783     IErMin=11 ErrMin= 9.46D-08
 ErrMax= 9.46D-08  0.00D+00 EMaxC= 1.00D-01 BMatC= 3.20D-13 BMatP= 1.85D-12
 IDIUse=1 WtCom= 1.00D+00 WtEn= 0.00D+00
 Coeff-Com:  0.169D-05 0.108D-04-0.185D-03 0.361D-03-0.259D-03 0.299D-02
 Coeff-Com: -0.186D-01 0.226D-01 0.204D+00-0.107D+01 0.186D+01
 Coeff:      0.169D-05 0.108D-04-0.185D-03 0.361D-03-0.259D-03 0.299D-02
 Coeff:     -0.186D-01 0.226D-01 0.204D+00-0.107D+01 0.186D+01
 Gap=     0.350 Goal=   None    Shift=    0.000
 RMSDP=2.10D-07 MaxDP=1.24D-06 DE=-2.37D-11 OVMax= 3.31D-06

 Cycle  12  Pass 1  IDiag  3:
 E= 0.544094244648193     Delta-E=       -0.000000000005 Rises=F Damp=F
 DIIS: error= 2.52D-08 at cycle  12 NSaved=  12.
 NSaved=12 IEnMin=12 EnMin= 0.544094244648193     IErMin=12 ErrMin= 2.52D-08
 ErrMax= 2.52D-08  0.00D+00 EMaxC= 1.00D-01 BMatC= 2.84D-14 BMatP= 3.20D-13
 IDIUse=1 WtCom= 1.00D+00 WtEn= 0.00D+00
 Coeff-Com:  0.216D-06-0.853D-05 0.738D-04-0.605D-04-0.128D-03-0.165D-02
 Coeff-Com:  0.134D-01-0.275D-01-0.518D-01 0.453D+00-0.109D+01 0.171D+01
 Coeff:      0.216D-06-0.853D-05 0.738D-04-0.605D-04-0.128D-03-0.165D-02
 Coeff:      0.134D-01-0.275D-01-0.518D-01 0.453D+00-0.109D+01 0.171D+01
 Gap=     0.350 Goal=   None    Shift=    0.000
 RMSDP=6.28D-08 MaxDP=3.63D-07 DE=-4.59D-12 OVMax= 9.55D-07

 Cycle  13  Pass 1  IDiag  3:
 E= 0.544094244647965     Delta-E=        0.000000000000 Rises=F Damp=F
 DIIS: error= 4.92D-09 at cycle  13 NSaved=  13.
 NSaved=13 IEnMin=13 EnMin= 0.544094244647965     IErMin=13 ErrMin= 4.92D-09
 ErrMax= 4.92D-09  0.00D+00 EMaxC= 1.00D-01 BMatC= 1.31D-15 BMatP= 2.84D-14
 IDIUse=1 WtCom= 1.00D+00 WtEn= 0.00D+00
 Coeff-Com: -0.286D-06 0.414D-05-0.294D-04 0.167D-04 0.703D-04 0.671D-03
 Coeff-Com: -0.573D-02 0.126D-01 0.136D-01-0.158D+00 0.404D+00-0.756D+00
 Coeff-Com:  0.149D+01
 Coeff:     -0.286D-06 0.414D-05-0.294D-04 0.167D-04 0.703D-04 0.671D-03
 Coeff:     -0.573D-02 0.126D-01 0.136D-01-0.158D+00 0.404D+00-0.756D+00
 Coeff:      0.149D+01
 Gap=     0.350 Goal=   None    Shift=    0.000
 RMSDP=8.30D-09 MaxDP=4.67D-08 DE=-2.27D-13 OVMax= 9.59D-08

 Cycle  14  Pass 2  IDiag  1:
 SCF Done:  E(RAM1) =  0.544094244648     A.U. after   14 cycles
            NFock= 13  Conv=0.83D-08     -V/T= 1.0403
 KE=-1.349551969481D+01 PE=-1.546795443587D+02 EE= 7.569065003283D+01
 Leave Link  502 at Tue Apr  5 11:44:11 2016, MaxMem=    33554432 cpu:         0.0
 (Enter /home/dustin/Applications/g09/g09/l601.exe)
 Copying SCF densities to generalized density rwf, IOpCl= 0 IROHF=0.

 **********************************************************************

            Population analysis using the SCF density.

 **********************************************************************

 Orbital symmetries:
       Occupied  (A) (A) (A) (A) (A) (A) (A) (A) (A) (A) (A) (A)
                 (A)
       Virtual   (A) (A) (A) (A) (A) (A) (A) (A) (A) (A) (A)
 The electronic state is 1-A.
 Alpha  occ. eigenvalues --   -1.34431  -1.07149  -0.88538  -0.72995  -0.68518
 Alpha  occ. eigenvalues --   -0.59956  -0.52101  -0.49741  -0.48619  -0.48219
 Alpha  occ. eigenvalues --   -0.42429  -0.34261  -0.32729
 Alpha virt. eigenvalues --    0.02199   0.03006   0.05532   0.08393   0.14526
 Alpha virt. eigenvalues --    0.15351   0.16332   0.17457   0.19789   0.20991
 Alpha virt. eigenvalues --    0.21347
          Condensed to atoms (all electrons):
               1          2          3          4          5          6
     1  C    3.965344   0.000000   0.000000   0.000000   0.000000   0.000000
     2  C    0.000000   3.940456   0.000000   0.000000   0.000000   0.000000
     3  C    0.000000   0.000000   3.961319   0.000000   0.000000   0.000000
     4  C    0.000000   0.000000   0.000000   3.972089   0.000000   0.000000
     5  H    0.000000   0.000000   0.000000   0.000000   1.041760   0.000000
     6  H    0.000000   0.000000   0.000000   0.000000   0.000000   1.022755
     7  H    0.000000   0.000000   0.000000   0.000000   0.000000   0.000000
     8  H    0.000000   0.000000   0.000000   0.000000   0.000000   0.000000
     9  S    0.000000   0.000000   0.000000   0.000000   0.000000   0.000000
               7          8          9
     1  C    0.000000   0.000000   0.000000
     2  C    0.000000   0.000000   0.000000
     3  C    0.000000   0.000000   0.000000
     4  C    0.000000   0.000000   0.000000
     5  H    0.000000   0.000000   0.000000
     6  H    0.000000   0.000000   0.000000
     7  H    1.024012   0.000000   0.000000
     8  H    0.000000   1.037590   0.000000
     9  S    0.000000   0.000000   6.034674
 Mulliken charges:
               1
     1  C    0.034656
     2  C    0.059544
     3  C    0.038681
     4  C    0.027911
     5  H   -0.041760
     6  H   -0.022755
     7  H   -0.024012
     8  H   -0.037590
     9  S   -0.034674
 Sum of Mulliken charges =   0.00000
 Mulliken charges with hydrogens summed into heavy atoms:
               1
     1  C   -0.002934
     2  C    0.035532
     3  C    0.015925
     4  C   -0.013849
     9  S   -0.034674
 Charge=              0.0000 electrons
 Dipole moment (field-independent basis, Debye):
    X=              1.1551    Y=             -0.1007    Z=              0.0656  Tot=              1.1613
 N-N= 9.302850826534D+01 E-N=-1.546795443384D+02  KE=-1.349551969481D+01
 Leave Link  601 at Tue Apr  5 11:44:11 2016, MaxMem=    33554432 cpu:         0.0
 (Enter /home/dustin/Applications/g09/g09/l701.exe)
 Compute integral first derivatives.
 ... and contract with generalized density number  0.
 Leave Link  701 at Tue Apr  5 11:44:11 2016, MaxMem=    33554432 cpu:         0.0
 (Enter /home/dustin/Applications/g09/g09/l702.exe)
 L702 exits ... SP integral derivatives will be done elsewhere.
 Leave Link  702 at Tue Apr  5 11:44:11 2016, MaxMem=    33554432 cpu:         0.0
 (Enter /home/dustin/Applications/g09/g09/l703.exe)
 Compute integral first derivatives, UseDBF=F ICtDFT=           0.
 Integral derivatives from FoFJK, PRISM(SPDF).
 Calling FoFJK, ICntrl=      2127 FMM=F ISym2X=0 I1Cent= 0 IOpClX= 0 NMat=1 NMatS=1 NMatT=0.
 FoFJK:  IHMeth= 8 ICntrl=    2127 DoSepK=F KAlg= 0 I1Cent=   0 FoldK=F
 IRaf=         0 NMat=   1 IRICut=       1 DoRegI=T DoRafI=F ISym2E= 0.
 FoFCou: FMM=F IPFlag=           0 FMFlag=      100000 FMFlg1=         800
         NFxFlg=           0 DoJE=F BraDBF=F KetDBF=F FulRan=T
         wScrn=  0.000000 ICntrl=    2127 IOpCl=  0 I1Cent=           0 NGrid=           0
         NMat0=    1 NMatS0=      1 NMatT0=    0 NMatD0=    1 NMtDS0=    0 NMtDT0=    0
 Symmetry not used in FoFCou.
 Leave Link  703 at Tue Apr  5 11:44:11 2016, MaxMem=    33554432 cpu:         0.0
 (Enter /home/dustin/Applications/g09/g09/l716.exe)
 Dipole        = 4.54454647D-01-3.96131516D-02 2.57971599D-02
 ***** Axes restored to original set *****
 -------------------------------------------------------------------
 Center     Atomic                   Forces (Hartrees/Bohr)
 Number     Number              X              Y              Z
 -------------------------------------------------------------------
      1        6          -0.046815912   -0.035733576    0.013390033
      2        6           0.095139198    0.087875584   -0.014359157
      3        6          -0.002787430    0.012581780    0.001303181
      4        6           0.027154427   -0.003615204    0.010166741
      5        1          -0.010606121   -0.016702938   -0.006928577
      6        1          -0.005267126   -0.008307756   -0.005523839
      7        1          -0.018567211   -0.038841378    0.000858684
      8        1          -0.031559630    0.018889042   -0.003716337
      9       16          -0.006690194   -0.016145554    0.004809270
 -------------------------------------------------------------------
 Cartesian Forces:  Max     0.095139198 RMS     0.030891278
 Leave Link  716 at Tue Apr  5 11:44:11 2016, MaxMem=    33554432 cpu:         0.0
 (Enter /home/dustin/Applications/g09/g09/l103.exe)

 GradGradGradGradGradGradGradGradGradGradGradGradGradGradGradGradGradGrad
 Berny optimization.
 FormGI is forming the generalized inverse of G from B-inverse, IUseBI=4.
 Internal  Forces:  Max     0.079138609 RMS     0.017595332
 Search for a local minimum.
 Step number   1 out of a maximum of   48
 All quantities printed in internal units (Hartrees-Bohrs-Radians)
 RMS Force = .17595D-01 SwitMx=.10000D-02 MixMth= 1
 Mixed Optimization -- RFO/linear search
 Second derivative matrix not updated -- first step.
 ITU=  0
     Eigenvalues ---    0.01397   0.01549   0.01814   0.02247   0.02299
     Eigenvalues ---    0.02587   0.15733   0.15853   0.15960   0.15992
     Eigenvalues ---    0.21973   0.22642   0.27871   0.30118   0.32157
     Eigenvalues ---    0.32861   0.35582   0.40284   0.41147   0.45367
     Eigenvalues ---    0.56174
 RFO step:  Lambda=-3.13501796D-02 EMin= 1.39733175D-02
 Linear search not attempted -- first point.
 Iteration  1 RMS(Cart)=  0.05640884 RMS(Int)=  0.00271585
 Iteration  2 RMS(Cart)=  0.00217982 RMS(Int)=  0.00096644
 Iteration  3 RMS(Cart)=  0.00000383 RMS(Int)=  0.00096643
 Iteration  4 RMS(Cart)=  0.00000000 RMS(Int)=  0.00096643
 ITry= 1 IFail=0 DXMaxC= 1.55D-01 DCOld= 1.00D+10 DXMaxT= 3.00D-01 DXLimC= 3.00D+00 Rises=F
 Variable       Old X    -DE/DX   Delta X   Delta X   Delta X     New X
                                 (Linear)    (Quad)   (Total)
    R1        2.68218  -0.07914   0.00000  -0.18113  -0.18074   2.50144
    R2        2.69411  -0.01517   0.00000  -0.03653  -0.03630   2.65781
    R3        2.14428  -0.03686   0.00000  -0.11085  -0.11085   2.03343
    R4        1.91551   0.04193   0.00000   0.08645   0.08645   2.00196
    R5        3.35050  -0.00993   0.00000  -0.03564  -0.03558   3.31491
    R6        2.51931   0.01110   0.00000   0.02215   0.02195   2.54126
    R7        2.04740  -0.00785   0.00000  -0.02028  -0.02028   2.02712
    R8        3.24449   0.00071   0.00000   0.01081   0.01043   3.25491
    R9        2.10557  -0.01892   0.00000  -0.05362  -0.05362   2.05195
    A1        1.96475   0.01048   0.00000   0.02443   0.02387   1.98862
    A2        2.16031  -0.00592   0.00000  -0.01277  -0.01390   2.14641
    A3        2.14997  -0.00409   0.00000  -0.00243  -0.00339   2.14658
    A4        2.20095   0.00024   0.00000   0.02294   0.02277   2.22372
    A5        1.87236   0.01814   0.00000   0.05179   0.05201   1.92437
    A6        2.20948  -0.01837   0.00000  -0.07426  -0.07443   2.13504
    A7        2.20209   0.01122   0.00000   0.04306   0.04353   2.24562
    A8        1.94048  -0.00864   0.00000  -0.01214  -0.01308   1.92740
    A9        2.13803  -0.00256   0.00000  -0.02973  -0.02934   2.10868
   A10        2.00887  -0.00700   0.00000  -0.02008  -0.02122   1.98765
   A11        2.17519  -0.00410   0.00000  -0.02579  -0.02672   2.14847
   A12        2.08745   0.01159   0.00000   0.05721   0.05662   2.14407
   A13        1.62850  -0.01244   0.00000  -0.03230  -0.03336   1.59513
    D1       -3.07227  -0.00177   0.00000  -0.03907  -0.03857  -3.11084
    D2        0.09793  -0.00170   0.00000  -0.05505  -0.05646   0.04147
    D3       -0.06395   0.00190   0.00000   0.03607   0.03603  -0.02792
    D4        3.10625   0.00197   0.00000   0.02009   0.01815   3.12439
    D5       -0.01745   0.00050   0.00000   0.00978   0.00930  -0.00815
    D6        2.95918   0.00499   0.00000   0.09481   0.09321   3.05239
    D7       -3.02668  -0.00297   0.00000  -0.06392  -0.06438  -3.09107
    D8       -0.05006   0.00152   0.00000   0.02112   0.01953  -0.03053
    D9       -0.11936   0.00247   0.00000   0.06918   0.07021  -0.04915
   D10        3.05102   0.00214   0.00000   0.05103   0.05150   3.10252
   D11        2.98864   0.00222   0.00000   0.06210   0.06400   3.05265
   D12        0.00309  -0.00054   0.00000  -0.01035  -0.01122  -0.00812
   D13       -0.07682   0.00210   0.00000   0.04643   0.04682  -0.02999
   D14       -3.06237  -0.00067   0.00000  -0.02601  -0.02840  -3.09076
   D15        0.11460  -0.00467   0.00000  -0.07197  -0.07020   0.04440
   D16       -2.95413  -0.00551   0.00000  -0.09064  -0.08947  -3.04360
         Item               Value     Threshold  Converged?
 Maximum Force            0.079139     0.000450     NO 
 RMS     Force            0.017595     0.000300     NO 
 Maximum Displacement     0.154837     0.001800     NO 
 RMS     Displacement     0.056841     0.001200     NO 
 Predicted change in Energy=-1.762805D-02
 Lowest energy point so far.  Saving SCF results.
 GradGradGradGradGradGradGradGradGradGradGradGradGradGradGradGradGradGrad

 Leave Link  103 at Tue Apr  5 11:44:11 2016, MaxMem=    33554432 cpu:         0.0
 (Enter /home/dustin/Applications/g09/g09/l202.exe)
                          Input orientation:                          
 ---------------------------------------------------------------------
 Center     Atomic      Atomic             Coordinates (Angstroms)
 Number     Number       Type             X           Y           Z
 ---------------------------------------------------------------------
      1          6           0        0.855929   -0.684384   -0.058684
      2          6           0       -0.358113   -1.210125   -0.015181
      3          6           0       -0.352269    1.277421    0.039757
      4          6           0        0.870649    0.721527   -0.022501
      5          1           0        1.785653    1.303754    0.030744
      6          1           0       -0.613326    2.311861    0.151473
      7          1           0       -0.614322   -2.238012   -0.004142
      8          1           0        1.752238   -1.279766   -0.063595
      9         16           0       -1.569089    0.058806    0.006926
 ---------------------------------------------------------------------
                    Distance matrix (angstroms):
                    1          2          3          4          5
     1  C    0.000000
     2  C    1.323705   0.000000
     3  C    2.306103   2.488159   0.000000
     4  C    1.406453   2.289364   1.344777   0.000000
     5  H    2.196606   3.304154   2.138103   1.085843   0.000000
     6  H    3.343704   3.535151   1.072706   2.182112   2.604986
     7  H    2.139713   1.059394   3.525459   3.311245   4.278458
     8  H    1.076045   2.112055   3.313432   2.187249   2.585458
     9  S    2.537193   1.754177   1.722426   2.528317   3.578373
                    6          7          8          9
     6  H    0.000000
     7  H    4.552533   0.000000
     8  H    4.306034   2.553894   0.000000
     9  S    2.451659   2.487383   3.581614   0.000000
 Stoichiometry    C4H4S
 Framework group  C1[X(C4H4S)]
 Deg. of freedom    21
 Full point group                 C1      NOp   1
 RotChk:  IX=0 Diff= 1.46D-02
 Largest Abelian subgroup         C1      NOp   1
 Largest concise Abelian subgroup C1      NOp   1
                         Standard orientation:                         
 ---------------------------------------------------------------------
 Center     Atomic      Atomic             Coordinates (Angstroms)
 Number     Number       Type             X           Y           Z
 ---------------------------------------------------------------------
      1          6           0        1.273212   -0.655524   -0.016422
      2          6           0        0.088564   -1.244885    0.021747
      3          6           0       -0.040097    1.239913    0.009027
      4          6           0        1.211805    0.749586   -0.018296
      5          1           0        2.093156    1.381689    0.033864
      6          1           0       -0.358231    2.261286    0.088304
      7          1           0       -0.112255   -2.284487    0.056623
      8          1           0        2.200135   -1.201438    0.009369
      9         16           0       -1.188982   -0.043224   -0.010281
 ---------------------------------------------------------------------
 Rotational constants (GHZ):      8.0446077      5.5120657      3.2721192
 Leave Link  202 at Tue Apr  5 11:44:11 2016, MaxMem=    33554432 cpu:         0.0
 (Enter /home/dustin/Applications/g09/g09/l301.exe)

 Semi-emprical parameters in input format:
 Method=8 CoreType=1 PeptideFC=0.0114505045 RIJScale=0.5291772086
 ****
 H       
 PQN=1 NValence=1 F0ss=0.4721553327 ZetaOverlap=1.1880780000 U=-0.4442910774
 Beta=-0.2268825074 CoreKO=1.0589197790 KON=0,0,0,1.0204364545 KON=1,0,1,1.0589197790
 KON=0,1,1,1.0589197790 KON=2,1,1,1.1187900186 EISol=-0.4188110042 EHeat=0.0830298228
 Alpha=1.5252601686
 GCore=0.0085277107,1.4001425905,2.2676713595
 GCore=0.0003534810,1.4001425905,3.4015070392
 GCore=-0.0012733648,0.5600570362,3.9684248791
 ****
 C       
 PQN=2,2 NValence=4 F0ss=0.4494442496 F0sp=0.4541392960 F0pp=0.3869599554 F2pp=0.1898715146
 G1sp=0.2679025821
 ZetaOverlap=1.8086650000,1.6851160000
 U=-1.9120180828,-1.4557965594
 Beta=-0.5833272394,-0.2836784428 DDN=0,1,0.7507598514 DDN=1,1,0.7268015000
 CoreKO=1.1124284736 KON=0,0,0,1.1124284736 KON=1,0,1,0.8219701441 KON=0,1,1,1.1124284736
 KON=2,1,1,0.7085077381 EISol=-4.4398989268 EHeat=0.2723305520 Alpha=1.4014062429
 DipHyp=1.5014333191
 GCore=0.0008004091,1.4001425905,3.0235618126
 GCore=0.0031892455,1.5034089780,3.4959933458
 GCore=-0.0013931594,1.4001425905,3.8739385724
 GCore=-0.0000875022,1.4236098352,5.0077742521
 ****
 S       
 PQN=3,3 NValence=6 F0ss=0.4331396397 F0sp=0.3183640731 F0pp=0.3136271218 F2pp=0.3456917167
 G1sp=0.2791629797
 ZetaOverlap=2.3507968292,1.6672630000,0.9900384765
 U=-2.0834683120,-1.7903186861
 Beta=-0.1440781557,-0.2905136336 DDN=0,1,0.9004265000 DDN=1,1,1.0036329000
 CoreKO=1.1543033468 KON=0,0,0,1.1598015916 KON=1,0,1,0.8047915935 KON=0,1,1,1.1543033468
 KON=2,1,1,0.7746001785 EISol=-7.0460287497 EHeat=0.1058151363 Alpha=1.3026480172
 DipHyp=1.8007493954
 GCore=-0.0333656337,1.2870452277,1.3506722212
 GCore=-0.0008431297,1.6104168626,2.8408498620
 GCore=0.0008818716,3.7964407093,3.5205627774
 ****
 
 Standard basis: VSTO-6G (5D, 7F)
 Ernie: Thresh=  0.10000D-02 Tol=  0.10000D-05 Strict=F.
  NNHCO=     0 NNPyr=     0 NCTC=     0               EPep=         0.000000000
    EC=        63.912009236  ECS=         1.727668458   EG=         0.144973212
   EHC=         0.000000000  EAt=       -26.480868474  AtH=         1.527256636
 EPDDG=         0.000000000  ECC=        65.784650907 EAtT=        28.008125109
 There are    24 symmetry adapted cartesian basis functions of A   symmetry.
 There are    24 symmetry adapted basis functions of A   symmetry.
    24 basis functions,   144 primitive gaussians,    24 cartesian basis functions
    13 alpha electrons       13 beta electrons
       nuclear repulsion energy        93.7927760160 Hartrees.



 Warning!  S  atom    9 may be hypervalent but has no d functions.



 IExCor=    0 DFT=F Ex=HF Corr=None ExCW=0 ScaHFX=  1.000000
 ScaDFX=  1.000000  1.000000  1.000000  1.000000 ScalE2=  1.000000  1.000000
 IRadAn=      0 IRanWt=     -1 IRanGd=            0 ICorTp=0 IEmpDi=  4
 Integral buffers will be    131072 words long.
 Regular integral format.
 Two-electron integral symmetry is turned off.
 Leave Link  301 at Tue Apr  5 11:44:11 2016, MaxMem=    33554432 cpu:         0.0
 (Enter /home/dustin/Applications/g09/g09/l302.exe)
 Do NDO integrals.
 NPDir=0 NMtPBC=     1 NCelOv=     1 NCel=       1 NClECP=     1 NCelD=      1
         NCelK=      1 NCelE2=     1 NClLst=     1 CellRange=     0.0.
 One-electron integrals computed using PRISM.
 NBasis=    24 RedAO= F EigKep=  0.00D+00  NBF=    24
 NBsUse=    24 1.00D-04 EigRej=  0.00D+00 NBFU=    24
 Leave Link  302 at Tue Apr  5 11:44:11 2016, MaxMem=    33554432 cpu:         0.0
 (Enter /home/dustin/Applications/g09/g09/l303.exe)
 DipDrv:  MaxL=1.
 Leave Link  303 at Tue Apr  5 11:44:11 2016, MaxMem=    33554432 cpu:         0.0
 (Enter /home/dustin/Applications/g09/g09/l401.exe)
 Initial guess from the checkpoint file:  "best.chk"
 B after Tr=     0.000000    0.000000    0.000000
         Rot=    0.999992    0.000329   -0.000173   -0.003863 Ang=   0.44 deg.
 Guess basis will be translated and rotated to current coordinates.
 JPrj=0 DoOrth=T DoCkMO=T.
 Leave Link  401 at Tue Apr  5 11:44:11 2016, MaxMem=    33554432 cpu:         0.0
 (Enter /home/dustin/Applications/g09/g09/l502.exe)
 Closed shell SCF:
 Using DIIS extrapolation, IDIIS=  1040.
 Overlap will be assumed to be unity.
 Two-electron integral symmetry not used.
 Keep J ints in memory in canonical form, NReq=888082.
 IVT=       79475 IEndB=       79475 NGot=    33554432 MDV=    33473473
 LenX=    33473473 LenY=    33472456
 Requested convergence on RMS density matrix=1.00D-08 within 128 cycles.
 Requested convergence on MAX density matrix=1.00D-06.
 Requested convergence on             energy=1.00D-06.
 No special actions if energy rises.
 FoFCou: FMM=F IPFlag=           0 FMFlag=           0 FMFlg1=           0
         NFxFlg=           0 DoJE=F BraDBF=F KetDBF=F FulRan=T
         wScrn=  0.000000 ICntrl=     600 IOpCl=  2 I1Cent=           0 NGrid=           0
         NMat0=    1 NMatS0=     54 NMatT0=    0 NMatD0=    1 NMtDS0=    0 NMtDT0=    0
 Symmetry not used in FoFCou.

 Cycle   1  Pass 1  IDiag  1:
 E= 0.537153042150607    
 DIIS: error= 5.78D-03 at cycle   1 NSaved=   1.
 NSaved= 1 IEnMin= 1 EnMin= 0.537153042150607     IErMin= 1 ErrMin= 5.78D-03
 ErrMax= 5.78D-03  0.00D+00 EMaxC= 1.00D-01 BMatC= 2.04D-03 BMatP= 2.04D-03
 IDIUse=3 WtCom= 9.42D-01 WtEn= 5.78D-02
 Coeff-Com:  0.100D+01
 Coeff-En:   0.100D+01
 Coeff:      0.100D+01
 GapD=    2.000 DampG=2.000 DampE=1.000 DampFc=2.0000 IDamp=-1.
 RMSDP=3.15D-03 MaxDP=1.35D-02              OVMax= 0.00D+00

 Cycle   2  Pass 1  IDiag  3:
 E= 0.530987252412089     Delta-E=       -0.006165789739 Rises=F Damp=F
 DIIS: error= 1.76D-03 at cycle   2 NSaved=   2.
 NSaved= 2 IEnMin= 2 EnMin= 0.530987252412089     IErMin= 2 ErrMin= 1.76D-03
 ErrMax= 1.76D-03  0.00D+00 EMaxC= 1.00D-01 BMatC= 2.38D-04 BMatP= 2.04D-03
 IDIUse=3 WtCom= 9.82D-01 WtEn= 1.76D-02
 Coeff-Com: -0.436D+00 0.144D+01
 Coeff-En:   0.000D+00 0.100D+01
 Coeff:     -0.428D+00 0.143D+01
 Gap=     0.363 Goal=   None    Shift=    0.000
 RMSDP=1.90D-03 MaxDP=7.28D-03 DE=-6.17D-03 OVMax= 9.71D-03

 Cycle   3  Pass 1  IDiag  3:
 E= 0.529853458407516     Delta-E=       -0.001133794005 Rises=F Damp=F
 DIIS: error= 5.38D-04 at cycle   3 NSaved=   3.
 NSaved= 3 IEnMin= 3 EnMin= 0.529853458407516     IErMin= 3 ErrMin= 5.38D-04
 ErrMax= 5.38D-04  0.00D+00 EMaxC= 1.00D-01 BMatC= 1.22D-05 BMatP= 2.38D-04
 IDIUse=3 WtCom= 9.95D-01 WtEn= 5.38D-03
 Coeff-Com:  0.218D+00-0.828D+00 0.161D+01
 Coeff-En:   0.000D+00 0.000D+00 0.100D+01
 Coeff:      0.217D+00-0.824D+00 0.161D+01
 Gap=     0.363 Goal=   None    Shift=    0.000
 RMSDP=7.02D-04 MaxDP=2.91D-03 DE=-1.13D-03 OVMax= 6.45D-03

 Cycle   4  Pass 1  IDiag  3:
 E= 0.529753855862396     Delta-E=       -0.000099602545 Rises=F Damp=F
 DIIS: error= 1.26D-04 at cycle   4 NSaved=   4.
 NSaved= 4 IEnMin= 4 EnMin= 0.529753855862396     IErMin= 4 ErrMin= 1.26D-04
 ErrMax= 1.26D-04  0.00D+00 EMaxC= 1.00D-01 BMatC= 8.72D-07 BMatP= 1.22D-05
 IDIUse=3 WtCom= 9.99D-01 WtEn= 1.26D-03
 Coeff-Com: -0.571D-01 0.234D+00-0.657D+00 0.148D+01
 Coeff-En:   0.000D+00 0.000D+00 0.000D+00 0.100D+01
 Coeff:     -0.570D-01 0.234D+00-0.656D+00 0.148D+01
 Gap=     0.363 Goal=   None    Shift=    0.000
 RMSDP=2.22D-04 MaxDP=1.07D-03 DE=-9.96D-05 OVMax= 2.80D-03

 Cycle   5  Pass 1  IDiag  3:
 E= 0.529745277298062     Delta-E=       -0.000008578564 Rises=F Damp=F
 DIIS: error= 3.65D-05 at cycle   5 NSaved=   5.
 NSaved= 5 IEnMin= 5 EnMin= 0.529745277298062     IErMin= 5 ErrMin= 3.65D-05
 ErrMax= 3.65D-05  0.00D+00 EMaxC= 1.00D-01 BMatC= 7.91D-08 BMatP= 8.72D-07
 IDIUse=1 WtCom= 1.00D+00 WtEn= 0.00D+00
 Coeff-Com:  0.335D-02-0.194D-01 0.115D+00-0.602D+00 0.150D+01
 Coeff:      0.335D-02-0.194D-01 0.115D+00-0.602D+00 0.150D+01
 Gap=     0.363 Goal=   None    Shift=    0.000
 RMSDP=7.76D-05 MaxDP=4.47D-04 DE=-8.58D-06 OVMax= 1.12D-03

 Cycle   6  Pass 1  IDiag  3:
 E= 0.529744432799674     Delta-E=       -0.000000844498 Rises=F Damp=F
 DIIS: error= 1.41D-05 at cycle   6 NSaved=   6.
 NSaved= 6 IEnMin= 6 EnMin= 0.529744432799674     IErMin= 6 ErrMin= 1.41D-05
 ErrMax= 1.41D-05  0.00D+00 EMaxC= 1.00D-01 BMatC= 5.52D-09 BMatP= 7.91D-08
 IDIUse=1 WtCom= 1.00D+00 WtEn= 0.00D+00
 Coeff-Com:  0.270D-02-0.800D-02-0.111D-01 0.213D+00-0.796D+00 0.160D+01
 Coeff:      0.270D-02-0.800D-02-0.111D-01 0.213D+00-0.796D+00 0.160D+01
 Gap=     0.363 Goal=   None    Shift=    0.000
 RMSDP=1.97D-05 MaxDP=1.21D-04 DE=-8.44D-07 OVMax= 2.86D-04

 Cycle   7  Pass 1  IDiag  3:
 E= 0.529744378829207     Delta-E=       -0.000000053970 Rises=F Damp=F
 DIIS: error= 3.28D-06 at cycle   7 NSaved=   7.
 NSaved= 7 IEnMin= 7 EnMin= 0.529744378829207     IErMin= 7 ErrMin= 3.28D-06
 ErrMax= 3.28D-06  0.00D+00 EMaxC= 1.00D-01 BMatC= 3.34D-10 BMatP= 5.52D-09
 IDIUse=1 WtCom= 1.00D+00 WtEn= 0.00D+00
 Coeff-Com: -0.158D-02 0.486D-02 0.314D-02-0.102D+00 0.404D+00-0.951D+00
 Coeff-Com:  0.164D+01
 Coeff:     -0.158D-02 0.486D-02 0.314D-02-0.102D+00 0.404D+00-0.951D+00
 Coeff:      0.164D+01
 Gap=     0.363 Goal=   None    Shift=    0.000
 RMSDP=4.39D-06 MaxDP=3.03D-05 DE=-5.40D-08 OVMax= 5.25D-05

 Cycle   8  Pass 1  IDiag  3:
 E= 0.529744375939728     Delta-E=       -0.000000002889 Rises=F Damp=F
 DIIS: error= 9.83D-07 at cycle   8 NSaved=   8.
 NSaved= 8 IEnMin= 8 EnMin= 0.529744375939728     IErMin= 8 ErrMin= 9.83D-07
 ErrMax= 9.83D-07  0.00D+00 EMaxC= 1.00D-01 BMatC= 1.80D-11 BMatP= 3.34D-10
 IDIUse=1 WtCom= 1.00D+00 WtEn= 0.00D+00
 Coeff-Com:  0.748D-03-0.235D-02-0.103D-02 0.461D-01-0.186D+00 0.448D+00
 Coeff-Com: -0.896D+00 0.159D+01
 Coeff:      0.748D-03-0.235D-02-0.103D-02 0.461D-01-0.186D+00 0.448D+00
 Coeff:     -0.896D+00 0.159D+01
 Gap=     0.363 Goal=   None    Shift=    0.000
 RMSDP=9.24D-07 MaxDP=8.01D-06 DE=-2.89D-09 OVMax= 6.64D-06

 Cycle   9  Pass 1  IDiag  3:
 E= 0.529744375788866     Delta-E=       -0.000000000151 Rises=F Damp=F
 DIIS: error= 2.27D-07 at cycle   9 NSaved=   9.
 NSaved= 9 IEnMin= 9 EnMin= 0.529744375788866     IErMin= 9 ErrMin= 2.27D-07
 ErrMax= 2.27D-07  0.00D+00 EMaxC= 1.00D-01 BMatC= 1.34D-12 BMatP= 1.80D-11
 IDIUse=1 WtCom= 1.00D+00 WtEn= 0.00D+00
 Coeff-Com: -0.283D-03 0.904D-03 0.183D-03-0.161D-01 0.662D-01-0.162D+00
 Coeff-Com:  0.336D+00-0.794D+00 0.157D+01
 Coeff:     -0.283D-03 0.904D-03 0.183D-03-0.161D-01 0.662D-01-0.162D+00
 Coeff:      0.336D+00-0.794D+00 0.157D+01
 Gap=     0.363 Goal=   None    Shift=    0.000
 RMSDP=2.82D-07 MaxDP=2.20D-06 DE=-1.51D-10 OVMax= 2.94D-06

 Cycle  10  Pass 1  IDiag  3:
 E= 0.529744375776119     Delta-E=       -0.000000000013 Rises=F Damp=F
 DIIS: error= 5.14D-08 at cycle  10 NSaved=  10.
 NSaved=10 IEnMin=10 EnMin= 0.529744375776119     IErMin=10 ErrMin= 5.14D-08
 ErrMax= 5.14D-08  0.00D+00 EMaxC= 1.00D-01 BMatC= 1.11D-13 BMatP= 1.34D-12
 IDIUse=1 WtCom= 1.00D+00 WtEn= 0.00D+00
 Coeff-Com:  0.805D-04-0.263D-03 0.271D-04 0.406D-02-0.173D-01 0.431D-01
 Coeff-Com: -0.912D-01 0.253D+00-0.725D+00 0.153D+01
 Coeff:      0.805D-04-0.263D-03 0.271D-04 0.406D-02-0.173D-01 0.431D-01
 Coeff:     -0.912D-01 0.253D+00-0.725D+00 0.153D+01
 Gap=     0.363 Goal=   None    Shift=    0.000
 RMSDP=8.89D-08 MaxDP=5.28D-07 DE=-1.27D-11 OVMax= 1.18D-06

 Cycle  11  Pass 1  IDiag  3:
 E= 0.529744375774868     Delta-E=       -0.000000000001 Rises=F Damp=F
 DIIS: error= 2.10D-08 at cycle  11 NSaved=  11.
 NSaved=11 IEnMin=11 EnMin= 0.529744375774868     IErMin=11 ErrMin= 2.10D-08
 ErrMax= 2.10D-08  0.00D+00 EMaxC= 1.00D-01 BMatC= 1.53D-14 BMatP= 1.11D-13
 IDIUse=1 WtCom= 1.00D+00 WtEn= 0.00D+00
 Coeff-Com: -0.125D-04 0.460D-04-0.692D-04-0.207D-03 0.144D-02-0.423D-02
 Coeff-Com:  0.105D-01-0.537D-01 0.262D+00-0.974D+00 0.176D+01
 Coeff:     -0.125D-04 0.460D-04-0.692D-04-0.207D-03 0.144D-02-0.423D-02
 Coeff:      0.105D-01-0.537D-01 0.262D+00-0.974D+00 0.176D+01
 Gap=     0.363 Goal=   None    Shift=    0.000
 RMSDP=4.14D-08 MaxDP=2.53D-07 DE=-1.25D-12 OVMax= 5.95D-07

 Cycle  12  Pass 1  IDiag  3:
 E= 0.529744375774541     Delta-E=        0.000000000000 Rises=F Damp=F
 DIIS: error= 5.06D-09 at cycle  12 NSaved=  12.
 NSaved=12 IEnMin=12 EnMin= 0.529744375774541     IErMin=12 ErrMin= 5.06D-09
 ErrMax= 5.06D-09  0.00D+00 EMaxC= 1.00D-01 BMatC= 1.41D-15 BMatP= 1.53D-14
 IDIUse=1 WtCom= 1.00D+00 WtEn= 0.00D+00
 Coeff-Com:  0.369D-05-0.155D-04 0.456D-04-0.106D-03 0.759D-04 0.248D-03
 Coeff-Com: -0.149D-02 0.197D-01-0.123D+00 0.536D+00-0.121D+01 0.178D+01
 Coeff:      0.369D-05-0.155D-04 0.456D-04-0.106D-03 0.759D-04 0.248D-03
 Coeff:     -0.149D-02 0.197D-01-0.123D+00 0.536D+00-0.121D+01 0.178D+01
 Gap=     0.363 Goal=   None    Shift=    0.000
 RMSDP=1.24D-08 MaxDP=7.56D-08 DE=-3.27D-13 OVMax= 1.78D-07

 Cycle  13  Pass 1  IDiag  3:
 E= 0.529744375774385     Delta-E=        0.000000000000 Rises=F Damp=F
 DIIS: error= 1.06D-09 at cycle  13 NSaved=  13.
 NSaved=13 IEnMin=13 EnMin= 0.529744375774385     IErMin=13 ErrMin= 1.06D-09
 ErrMax= 1.06D-09  0.00D+00 EMaxC= 1.00D-01 BMatC= 8.31D-17 BMatP= 1.41D-15
 IDIUse=1 WtCom= 1.00D+00 WtEn= 0.00D+00
 Coeff-Com: -0.134D-05 0.579D-05-0.185D-04 0.520D-04-0.698D-04-0.383D-05
 Coeff-Com:  0.380D-03-0.729D-02 0.467D-01-0.207D+00 0.487D+00-0.900D+00
 Coeff-Com:  0.158D+01
 Coeff:     -0.134D-05 0.579D-05-0.185D-04 0.520D-04-0.698D-04-0.383D-05
 Coeff:      0.380D-03-0.729D-02 0.467D-01-0.207D+00 0.487D+00-0.900D+00
 Coeff:      0.158D+01
 Gap=     0.363 Goal=   None    Shift=    0.000
 RMSDP=2.68D-09 MaxDP=1.46D-08 DE=-1.56D-13 OVMax= 3.59D-08

 Cycle  14  Pass 2  IDiag  1:
 SCF Done:  E(RAM1) =  0.529744375774     A.U. after   14 cycles
            NFock= 13  Conv=0.27D-08     -V/T= 1.0390
 KE=-1.359716414312D+01 PE=-1.559233108442D+02 EE= 7.625744334711D+01
 Leave Link  502 at Tue Apr  5 11:44:11 2016, MaxMem=    33554432 cpu:         0.0
 (Enter /home/dustin/Applications/g09/g09/l701.exe)
 Compute integral first derivatives.
 ... and contract with generalized density number  0.
 Leave Link  701 at Tue Apr  5 11:44:11 2016, MaxMem=    33554432 cpu:         0.0
 (Enter /home/dustin/Applications/g09/g09/l702.exe)
 L702 exits ... SP integral derivatives will be done elsewhere.
 Leave Link  702 at Tue Apr  5 11:44:11 2016, MaxMem=    33554432 cpu:         0.0
 (Enter /home/dustin/Applications/g09/g09/l703.exe)
 Compute integral first derivatives, UseDBF=F ICtDFT=           0.
 Integral derivatives from FoFJK, PRISM(SPDF).
 Calling FoFJK, ICntrl=      2127 FMM=F ISym2X=0 I1Cent= 0 IOpClX= 0 NMat=1 NMatS=1 NMatT=0.
 FoFJK:  IHMeth= 8 ICntrl=    2127 DoSepK=F KAlg= 0 I1Cent=   0 FoldK=F
 IRaf=         0 NMat=   1 IRICut=       1 DoRegI=T DoRafI=F ISym2E= 0.
 FoFCou: FMM=F IPFlag=           0 FMFlag=      100000 FMFlg1=         800
         NFxFlg=           0 DoJE=F BraDBF=F KetDBF=F FulRan=T
         wScrn=  0.000000 ICntrl=    2127 IOpCl=  0 I1Cent=           0 NGrid=           0
         NMat0=    1 NMatS0=      1 NMatT0=    0 NMatD0=    1 NMtDS0=    0 NMtDT0=    0
 Symmetry not used in FoFCou.
 Leave Link  703 at Tue Apr  5 11:44:11 2016, MaxMem=    33554432 cpu:         0.0
 (Enter /home/dustin/Applications/g09/g09/l716.exe)
 Dipole        = 4.79483721D-01 5.19747738D-03 1.08999826D-02
 ***** Axes restored to original set *****
 -------------------------------------------------------------------
 Center     Atomic                   Forces (Hartrees/Bohr)
 Number     Number              X              Y              Z
 -------------------------------------------------------------------
      1        6           0.020847129   -0.006512916    0.001907129
      2        6          -0.019946860   -0.007837272   -0.002688674
      3        6           0.007966019    0.007867932    0.001251883
      4        6           0.004326792    0.026924452    0.005198691
      5        1           0.000152261   -0.002094678   -0.002684029
      6        1          -0.002513069   -0.001805960   -0.002818474
      7        1          -0.009429306   -0.006970349   -0.000255754
      8        1           0.007230526   -0.001707293   -0.001563003
      9       16          -0.008633492   -0.007863917    0.001652231
 -------------------------------------------------------------------
 Cartesian Forces:  Max     0.026924452 RMS     0.009043588
 Leave Link  716 at Tue Apr  5 11:44:11 2016, MaxMem=    33554432 cpu:         0.0
 (Enter /home/dustin/Applications/g09/g09/l103.exe)

 GradGradGradGradGradGradGradGradGradGradGradGradGradGradGradGradGradGrad
 Berny optimization.
 Using GEDIIS/GDIIS optimizer.
 FormGI is forming the generalized inverse of G from B-inverse, IUseBI=4.
 Internal  Forces:  Max     0.031730102 RMS     0.007437499
 Search for a local minimum.
 Step number   2 out of a maximum of   48
 All quantities printed in internal units (Hartrees-Bohrs-Radians)
 RMS Force = .74375D-02 SwitMx=.10000D-02 MixMth= 1
 Mixed Optimization -- RFO/linear search
 Update second derivatives using D2CorX and points    1    2
 DE= -1.43D-02 DEPred=-1.76D-02 R= 8.14D-01
 TightC=F SS=  1.41D+00  RLast= 3.52D-01 DXNew= 5.0454D-01 1.0572D+00
 Trust test= 8.14D-01 RLast= 3.52D-01 DXMaxT set to 5.05D-01
 ITU=  1  0
 Use linear search instead of GDIIS.
     Eigenvalues ---    0.01415   0.01550   0.01797   0.02215   0.02284
     Eigenvalues ---    0.02608   0.14837   0.15948   0.15980   0.16028
     Eigenvalues ---    0.21958   0.22580   0.27684   0.30152   0.31677
     Eigenvalues ---    0.32579   0.35501   0.39582   0.43609   0.55888
     Eigenvalues ---    0.63136
 RFO step:  Lambda=-5.68222044D-03 EMin= 1.41503028D-02
 Quartic linear search produced a step of -0.11064.
 Iteration  1 RMS(Cart)=  0.05116967 RMS(Int)=  0.00228692
 Iteration  2 RMS(Cart)=  0.00252938 RMS(Int)=  0.00089766
 Iteration  3 RMS(Cart)=  0.00000236 RMS(Int)=  0.00089766
 Iteration  4 RMS(Cart)=  0.00000000 RMS(Int)=  0.00089766
 ITry= 1 IFail=0 DXMaxC= 1.40D-01 DCOld= 1.00D+10 DXMaxT= 5.05D-01 DXLimC= 3.00D+00 Rises=F
 Variable       Old X    -DE/DX   Delta X   Delta X   Delta X     New X
                                 (Linear)    (Quad)   (Total)
    R1        2.50144   0.03173   0.02000   0.02518   0.04519   2.54663
    R2        2.65781   0.02263   0.00402   0.04034   0.04488   2.70269
    R3        2.03343   0.00697   0.01227  -0.00628   0.00598   2.03941
    R4        2.00196   0.00904  -0.00957   0.03701   0.02745   2.02941
    R5        3.31491  -0.00033   0.00394  -0.00959  -0.00618   3.30874
    R6        2.54126   0.00277  -0.00243   0.00844   0.00642   2.54768
    R7        2.02712  -0.00142   0.00224  -0.00817  -0.00593   2.02119
    R8        3.25491   0.01263  -0.00115   0.03161   0.03023   3.28514
    R9        2.05195  -0.00113   0.00593  -0.01562  -0.00968   2.04226
    A1        1.98862  -0.00324  -0.00264   0.00231  -0.00194   1.98668
    A2        2.14641   0.00430   0.00154   0.01459   0.01432   2.16073
    A3        2.14658  -0.00097   0.00038  -0.01061  -0.01195   2.13463
    A4        2.22372   0.00912  -0.00252   0.04951   0.04732   2.27104
    A5        1.92437  -0.00331  -0.00575   0.00514  -0.00160   1.92277
    A6        2.13504  -0.00580   0.00824  -0.05437  -0.04579   2.08925
    A7        2.24562   0.00099  -0.00482   0.02204   0.01713   2.26275
    A8        1.92740   0.00388   0.00145   0.00745   0.00849   1.93589
    A9        2.10868  -0.00481   0.00325  -0.02750  -0.02433   2.08435
   A10        1.98765  -0.00302   0.00235  -0.01339  -0.01202   1.97563
   A11        2.14847  -0.00036   0.00296  -0.01043  -0.00914   2.13933
   A12        2.14407   0.00355  -0.00626   0.03194   0.02398   2.16805
   A13        1.59513   0.00578   0.00369   0.00541   0.00702   1.60215
    D1       -3.11084  -0.00085   0.00427  -0.06504  -0.06056   3.11178
    D2        0.04147  -0.00124   0.00625  -0.09483  -0.08856  -0.04708
    D3       -0.02792   0.00090  -0.00399   0.05170   0.04846   0.02054
    D4        3.12439   0.00051  -0.00201   0.02192   0.02046  -3.13833
    D5       -0.00815   0.00023  -0.00103   0.02500   0.02396   0.01581
    D6        3.05239   0.00257  -0.01031   0.13628   0.12460  -3.10620
    D7       -3.09107  -0.00172   0.00712  -0.09271  -0.08422   3.10790
    D8       -0.03053   0.00062  -0.00216   0.01856   0.01642  -0.01411
    D9       -0.04915   0.00148  -0.00777   0.10812   0.10007   0.05092
   D10        3.10252   0.00101  -0.00570   0.07940   0.07478  -3.10588
   D11        3.05265   0.00221  -0.00708   0.09802   0.09085  -3.13968
   D12       -0.00812   0.00007   0.00124  -0.01072  -0.00993  -0.01805
   D13       -0.02999   0.00098  -0.00518   0.05945   0.05379   0.02380
   D14       -3.09076  -0.00115   0.00314  -0.04929  -0.04699  -3.13775
   D15        0.04440  -0.00101   0.00777  -0.09349  -0.08683  -0.04243
   D16       -3.04360  -0.00231   0.00990  -0.13037  -0.12107   3.11852
         Item               Value     Threshold  Converged?
 Maximum Force            0.031730     0.000450     NO 
 RMS     Force            0.007437     0.000300     NO 
 Maximum Displacement     0.139883     0.001800     NO 
 RMS     Displacement     0.051054     0.001200     NO 
 Predicted change in Energy=-3.089800D-03
 Lowest energy point so far.  Saving SCF results.
 GradGradGradGradGradGradGradGradGradGradGradGradGradGradGradGradGradGrad

 Leave Link  103 at Tue Apr  5 11:44:11 2016, MaxMem=    33554432 cpu:         0.0
 (Enter /home/dustin/Applications/g09/g09/l202.exe)
                          Input orientation:                          
 ---------------------------------------------------------------------
 Center     Atomic      Atomic             Coordinates (Angstroms)
 Number     Number       Type             X           Y           Z
 ---------------------------------------------------------------------
      1          6           0        0.874708   -0.689097   -0.010927
      2          6           0       -0.363048   -1.221861   -0.024894
      3          6           0       -0.346060    1.282567    0.053708
      4          6           0        0.888011    0.740645    0.022763
      5          1           0        1.803565    1.314583    0.005096
      6          1           0       -0.639386    2.310770    0.080807
      7          1           0       -0.674019   -2.248600   -0.073917
      8          1           0        1.780400   -1.273111   -0.068789
      9         16           0       -1.566822    0.045185    0.080948
 ---------------------------------------------------------------------
                    Distance matrix (angstroms):
                    1          2          3          4          5
     1  C    0.000000
     2  C    1.347617   0.000000
     3  C    2.319895   2.505719   0.000000
     4  C    1.430201   2.327842   1.348173   0.000000
     5  H    2.208566   3.335964   2.150413   1.080719   0.000000
     6  H    3.361562   3.544999   1.069568   2.191256   2.639343
     7  H    2.198766   1.073918   3.548659   3.374148   4.340615
     8  H    1.079211   2.144509   3.326910   2.204530   2.588852
     9  S    2.551212   1.750908   1.738424   2.552108   3.602309
                    6          7          8          9
     6  H    0.000000
     7  H    4.562126   0.000000
     8  H    4.326887   2.641170   0.000000
     9  S    2.448063   2.466278   3.600586   0.000000
 Stoichiometry    C4H4S
 Framework group  C1[X(C4H4S)]
 Deg. of freedom    21
 Full point group                 C1      NOp   1
 RotChk:  IX=1 Diff= 6.36D-02
 Largest Abelian subgroup         C1      NOp   1
 Largest concise Abelian subgroup C1      NOp   1
                         Standard orientation:                         
 ---------------------------------------------------------------------
 Center     Atomic      Atomic             Coordinates (Angstroms)
 Number     Number       Type             X           Y           Z
 ---------------------------------------------------------------------
      1          6           0        1.257807   -0.709306    0.016224
      2          6           0        0.026991   -1.256932   -0.019437
      3          6           0        0.014114    1.248753   -0.017630
      4          6           0        1.254407    0.720856    0.006195
      5          1           0        2.163730    1.304837   -0.000946
      6          1           0       -0.291148    2.273743   -0.031307
      7          1           0       -0.271048   -2.288314   -0.046328
      8          1           0        2.171198   -1.283999    0.004337
      9         16           0       -1.193290   -0.001655    0.010133
 ---------------------------------------------------------------------
 Rotational constants (GHZ):      7.9178675      5.4407297      3.2255643
 Leave Link  202 at Tue Apr  5 11:44:11 2016, MaxMem=    33554432 cpu:         0.0
 (Enter /home/dustin/Applications/g09/g09/l301.exe)

 Semi-emprical parameters in input format:
 Method=8 CoreType=1 PeptideFC=0.0114505045 RIJScale=0.5291772086
 ****
 H       
 PQN=1 NValence=1 F0ss=0.4721553327 ZetaOverlap=1.1880780000 U=-0.4442910774
 Beta=-0.2268825074 CoreKO=1.0589197790 KON=0,0,0,1.0204364545 KON=1,0,1,1.0589197790
 KON=0,1,1,1.0589197790 KON=2,1,1,1.1187900186 EISol=-0.4188110042 EHeat=0.0830298228
 Alpha=1.5252601686
 GCore=0.0085277107,1.4001425905,2.2676713595
 GCore=0.0003534810,1.4001425905,3.4015070392
 GCore=-0.0012733648,0.5600570362,3.9684248791
 ****
 C       
 PQN=2,2 NValence=4 F0ss=0.4494442496 F0sp=0.4541392960 F0pp=0.3869599554 F2pp=0.1898715146
 G1sp=0.2679025821
 ZetaOverlap=1.8086650000,1.6851160000
 U=-1.9120180828,-1.4557965594
 Beta=-0.5833272394,-0.2836784428 DDN=0,1,0.7507598514 DDN=1,1,0.7268015000
 CoreKO=1.1124284736 KON=0,0,0,1.1124284736 KON=1,0,1,0.8219701441 KON=0,1,1,1.1124284736
 KON=2,1,1,0.7085077381 EISol=-4.4398989268 EHeat=0.2723305520 Alpha=1.4014062429
 DipHyp=1.5014333191
 GCore=0.0008004091,1.4001425905,3.0235618126
 GCore=0.0031892455,1.5034089780,3.4959933458
 GCore=-0.0013931594,1.4001425905,3.8739385724
 GCore=-0.0000875022,1.4236098352,5.0077742521
 ****
 S       
 PQN=3,3 NValence=6 F0ss=0.4331396397 F0sp=0.3183640731 F0pp=0.3136271218 F2pp=0.3456917167
 G1sp=0.2791629797
 ZetaOverlap=2.3507968292,1.6672630000,0.9900384765
 U=-2.0834683120,-1.7903186861
 Beta=-0.1440781557,-0.2905136336 DDN=0,1,0.9004265000 DDN=1,1,1.0036329000
 CoreKO=1.1543033468 KON=0,0,0,1.1598015916 KON=1,0,1,0.8047915935 KON=0,1,1,1.1543033468
 KON=2,1,1,0.7746001785 EISol=-7.0460287497 EHeat=0.1058151363 Alpha=1.3026480172
 DipHyp=1.8007493954
 GCore=-0.0333656337,1.2870452277,1.3506722212
 GCore=-0.0008431297,1.6104168626,2.8408498620
 GCore=0.0008818716,3.7964407093,3.5205627774
 ****
 
 Standard basis: VSTO-6G (5D, 7F)
 Ernie: Thresh=  0.10000D-02 Tol=  0.10000D-05 Strict=F.
  NNHCO=     0 NNPyr=     0 NCTC=     0               EPep=         0.000000000
    EC=        63.566019288  ECS=         1.672905317   EG=         0.146160219
   EHC=         0.000000000  EAt=       -26.480868474  AtH=         1.527256636
 EPDDG=         0.000000000  ECC=        65.385084825 EAtT=        28.008125109
 There are    24 symmetry adapted cartesian basis functions of A   symmetry.
 There are    24 symmetry adapted basis functions of A   symmetry.
    24 basis functions,   144 primitive gaussians,    24 cartesian basis functions
    13 alpha electrons       13 beta electrons
       nuclear repulsion energy        93.3932099346 Hartrees.



 Warning!  S  atom    9 may be hypervalent but has no d functions.



 IExCor=    0 DFT=F Ex=HF Corr=None ExCW=0 ScaHFX=  1.000000
 ScaDFX=  1.000000  1.000000  1.000000  1.000000 ScalE2=  1.000000  1.000000
 IRadAn=      0 IRanWt=     -1 IRanGd=            0 ICorTp=0 IEmpDi=  4
 Integral buffers will be    131072 words long.
 Regular integral format.
 Two-electron integral symmetry is turned off.
 Leave Link  301 at Tue Apr  5 11:44:11 2016, MaxMem=    33554432 cpu:         0.0
 (Enter /home/dustin/Applications/g09/g09/l302.exe)
 Do NDO integrals.
 NPDir=0 NMtPBC=     1 NCelOv=     1 NCel=       1 NClECP=     1 NCelD=      1
         NCelK=      1 NCelE2=     1 NClLst=     1 CellRange=     0.0.
 One-electron integrals computed using PRISM.
 NBasis=    24 RedAO= F EigKep=  0.00D+00  NBF=    24
 NBsUse=    24 1.00D-04 EigRej=  0.00D+00 NBFU=    24
 Leave Link  302 at Tue Apr  5 11:44:11 2016, MaxMem=    33554432 cpu:         0.0
 (Enter /home/dustin/Applications/g09/g09/l303.exe)
 DipDrv:  MaxL=1.
 Leave Link  303 at Tue Apr  5 11:44:11 2016, MaxMem=    33554432 cpu:         0.0
 (Enter /home/dustin/Applications/g09/g09/l401.exe)
 Initial guess from the checkpoint file:  "best.chk"
 B after Tr=     0.000000    0.000000    0.000000
         Rot=    0.999805   -0.000024    0.000025    0.019756 Ang=  -2.26 deg.
 Guess basis will be translated and rotated to current coordinates.
 JPrj=0 DoOrth=T DoCkMO=T.
 Leave Link  401 at Tue Apr  5 11:44:11 2016, MaxMem=    33554432 cpu:         0.0
 (Enter /home/dustin/Applications/g09/g09/l502.exe)
 Closed shell SCF:
 Using DIIS extrapolation, IDIIS=  1040.
 Overlap will be assumed to be unity.
 Two-electron integral symmetry not used.
 Keep J ints in memory in canonical form, NReq=888082.
 IVT=       79475 IEndB=       79475 NGot=    33554432 MDV=    33473473
 LenX=    33473473 LenY=    33472456
 Requested convergence on RMS density matrix=1.00D-08 within 128 cycles.
 Requested convergence on MAX density matrix=1.00D-06.
 Requested convergence on             energy=1.00D-06.
 No special actions if energy rises.
 FoFCou: FMM=F IPFlag=           0 FMFlag=           0 FMFlg1=           0
         NFxFlg=           0 DoJE=F BraDBF=F KetDBF=F FulRan=T
         wScrn=  0.000000 ICntrl=     600 IOpCl=  2 I1Cent=           0 NGrid=           0
         NMat0=    1 NMatS0=     54 NMatT0=    0 NMatD0=    1 NMtDS0=    0 NMtDT0=    0
 Symmetry not used in FoFCou.

 Cycle   1  Pass 1  IDiag  1:
 E= 0.533726166908096    
 DIIS: error= 5.74D-03 at cycle   1 NSaved=   1.
 NSaved= 1 IEnMin= 1 EnMin= 0.533726166908096     IErMin= 1 ErrMin= 5.74D-03
 ErrMax= 5.74D-03  0.00D+00 EMaxC= 1.00D-01 BMatC= 1.23D-03 BMatP= 1.23D-03
 IDIUse=3 WtCom= 9.43D-01 WtEn= 5.74D-02
 Coeff-Com:  0.100D+01
 Coeff-En:   0.100D+01
 Coeff:      0.100D+01
 GapD=    2.000 DampG=2.000 DampE=1.000 DampFc=2.0000 IDamp=-1.
 RMSDP=2.97D-03 MaxDP=1.39D-02              OVMax= 0.00D+00

 Cycle   2  Pass 1  IDiag  3:
 E= 0.528976147521050     Delta-E=       -0.004750019387 Rises=F Damp=F
 DIIS: error= 2.41D-03 at cycle   2 NSaved=   2.
 NSaved= 2 IEnMin= 2 EnMin= 0.528976147521050     IErMin= 2 ErrMin= 2.41D-03
 ErrMax= 2.41D-03  0.00D+00 EMaxC= 1.00D-01 BMatC= 2.11D-04 BMatP= 1.23D-03
 IDIUse=3 WtCom= 9.76D-01 WtEn= 2.41D-02
 Coeff-Com: -0.557D+00 0.156D+01
 Coeff-En:   0.000D+00 0.100D+01
 Coeff:     -0.544D+00 0.154D+01
 Gap=     0.362 Goal=   None    Shift=    0.000
 RMSDP=2.27D-03 MaxDP=1.11D-02 DE=-4.75D-03 OVMax= 1.38D-02

 Cycle   3  Pass 1  IDiag  3:
 E= 0.527640765387034     Delta-E=       -0.001335382134 Rises=F Damp=F
 DIIS: error= 6.10D-04 at cycle   3 NSaved=   3.
 NSaved= 3 IEnMin= 3 EnMin= 0.527640765387034     IErMin= 3 ErrMin= 6.10D-04
 ErrMax= 6.10D-04  0.00D+00 EMaxC= 1.00D-01 BMatC= 1.40D-05 BMatP= 2.11D-04
 IDIUse=3 WtCom= 9.94D-01 WtEn= 6.10D-03
 Coeff-Com:  0.302D+00-0.101D+01 0.171D+01
 Coeff-En:   0.000D+00 0.000D+00 0.100D+01
 Coeff:      0.300D+00-0.101D+01 0.171D+01
 Gap=     0.362 Goal=   None    Shift=    0.000
 RMSDP=8.79D-04 MaxDP=4.12D-03 DE=-1.34D-03 OVMax= 8.94D-03

 Cycle   4  Pass 1  IDiag  3:
 E= 0.527515571124965     Delta-E=       -0.000125194262 Rises=F Damp=F
 DIIS: error= 1.06D-04 at cycle   4 NSaved=   4.
 NSaved= 4 IEnMin= 4 EnMin= 0.527515571124965     IErMin= 4 ErrMin= 1.06D-04
 ErrMax= 1.06D-04  0.00D+00 EMaxC= 1.00D-01 BMatC= 6.65D-07 BMatP= 1.40D-05
 IDIUse=3 WtCom= 9.99D-01 WtEn= 1.06D-03
 Coeff-Com: -0.211D+00 0.725D+00-0.135D+01 0.184D+01
 Coeff-En:   0.000D+00 0.000D+00 0.000D+00 0.100D+01
 Coeff:     -0.211D+00 0.724D+00-0.135D+01 0.184D+01
 Gap=     0.363 Goal=   None    Shift=    0.000
 RMSDP=2.31D-04 MaxDP=1.35D-03 DE=-1.25D-04 OVMax= 3.44D-03

 Cycle   5  Pass 1  IDiag  3:
 E= 0.527508420350316     Delta-E=       -0.000007150775 Rises=F Damp=F
 DIIS: error= 2.90D-05 at cycle   5 NSaved=   5.
 NSaved= 5 IEnMin= 5 EnMin= 0.527508420350316     IErMin= 5 ErrMin= 2.90D-05
 ErrMax= 2.90D-05  0.00D+00 EMaxC= 1.00D-01 BMatC= 3.21D-08 BMatP= 6.65D-07
 IDIUse=1 WtCom= 1.00D+00 WtEn= 0.00D+00
 Coeff-Com:  0.733D-01-0.252D+00 0.476D+00-0.778D+00 0.148D+01
 Coeff:      0.733D-01-0.252D+00 0.476D+00-0.778D+00 0.148D+01
 Gap=     0.363 Goal=   None    Shift=    0.000
 RMSDP=4.60D-05 MaxDP=3.00D-04 DE=-7.15D-06 OVMax= 7.17D-04

 Cycle   6  Pass 1  IDiag  3:
 E= 0.527508107047069     Delta-E=       -0.000000313303 Rises=F Damp=F
 DIIS: error= 7.96D-06 at cycle   6 NSaved=   6.
 NSaved= 6 IEnMin= 6 EnMin= 0.527508107047069     IErMin= 6 ErrMin= 7.96D-06
 ErrMax= 7.96D-06  0.00D+00 EMaxC= 1.00D-01 BMatC= 2.54D-09 BMatP= 3.21D-08
 IDIUse=1 WtCom= 1.00D+00 WtEn= 0.00D+00
 Coeff-Com: -0.147D-01 0.505D-01-0.959D-01 0.178D+00-0.572D+00 0.145D+01
 Coeff:     -0.147D-01 0.505D-01-0.959D-01 0.178D+00-0.572D+00 0.145D+01
 Gap=     0.363 Goal=   None    Shift=    0.000
 RMSDP=1.18D-05 MaxDP=7.31D-05 DE=-3.13D-07 OVMax= 1.58D-04

 Cycle   7  Pass 1  IDiag  3:
 E= 0.527508084203731     Delta-E=       -0.000000022843 Rises=F Damp=F
 DIIS: error= 2.62D-06 at cycle   7 NSaved=   7.
 NSaved= 7 IEnMin= 7 EnMin= 0.527508084203731     IErMin= 7 ErrMin= 2.62D-06
 ErrMax= 2.62D-06  0.00D+00 EMaxC= 1.00D-01 BMatC= 1.94D-10 BMatP= 2.54D-09
 IDIUse=1 WtCom= 1.00D+00 WtEn= 0.00D+00
 Coeff-Com:  0.158D-02-0.552D-02 0.109D-01-0.273D-01 0.145D+00-0.618D+00
 Coeff-Com:  0.149D+01
 Coeff:      0.158D-02-0.552D-02 0.109D-01-0.273D-01 0.145D+00-0.618D+00
 Coeff:      0.149D+01
 Gap=     0.363 Goal=   None    Shift=    0.000
 RMSDP=3.21D-06 MaxDP=1.97D-05 DE=-2.28D-08 OVMax= 3.49D-05

 Cycle   8  Pass 1  IDiag  3:
 E= 0.527508082556992     Delta-E=       -0.000000001647 Rises=F Damp=F
 DIIS: error= 6.52D-07 at cycle   8 NSaved=   8.
 NSaved= 8 IEnMin= 8 EnMin= 0.527508082556992     IErMin= 8 ErrMin= 6.52D-07
 ErrMax= 6.52D-07  0.00D+00 EMaxC= 1.00D-01 BMatC= 1.10D-11 BMatP= 1.94D-10
 IDIUse=1 WtCom= 1.00D+00 WtEn= 0.00D+00
 Coeff-Com:  0.486D-03-0.166D-02 0.298D-02-0.187D-02-0.223D-01 0.157D+00
 Coeff-Com: -0.580D+00 0.144D+01
 Coeff:      0.486D-03-0.166D-02 0.298D-02-0.187D-02-0.223D-01 0.157D+00
 Coeff:     -0.580D+00 0.144D+01
 Gap=     0.363 Goal=   None    Shift=    0.000
 RMSDP=6.59D-07 MaxDP=4.56D-06 DE=-1.65D-09 OVMax= 4.99D-06

 Cycle   9  Pass 1  IDiag  3:
 E= 0.527508082476402     Delta-E=       -0.000000000081 Rises=F Damp=F
 DIIS: error= 1.35D-07 at cycle   9 NSaved=   9.
 NSaved= 9 IEnMin= 9 EnMin= 0.527508082476402     IErMin= 9 ErrMin= 1.35D-07
 ErrMax= 1.35D-07  0.00D+00 EMaxC= 1.00D-01 BMatC= 6.89D-13 BMatP= 1.10D-11
 IDIUse=1 WtCom= 1.00D+00 WtEn= 0.00D+00
 Coeff-Com: -0.296D-03 0.101D-02-0.187D-02 0.231D-02 0.110D-02-0.294D-01
 Coeff-Com:  0.148D+00-0.569D+00 0.145D+01
 Coeff:     -0.296D-03 0.101D-02-0.187D-02 0.231D-02 0.110D-02-0.294D-01
 Coeff:      0.148D+00-0.569D+00 0.145D+01
 Gap=     0.363 Goal=   None    Shift=    0.000
 RMSDP=1.57D-07 MaxDP=9.40D-07 DE=-8.06D-11 OVMax= 1.07D-06

 Cycle  10  Pass 1  IDiag  3:
 E= 0.527508082471030     Delta-E=       -0.000000000005 Rises=F Damp=F
 DIIS: error= 2.53D-08 at cycle  10 NSaved=  10.
 NSaved=10 IEnMin=10 EnMin= 0.527508082471030     IErMin=10 ErrMin= 2.53D-08
 ErrMax= 2.53D-08  0.00D+00 EMaxC= 1.00D-01 BMatC= 4.59D-14 BMatP= 6.89D-13
 IDIUse=1 WtCom= 1.00D+00 WtEn= 0.00D+00
 Coeff-Com:  0.775D-04-0.267D-03 0.498D-03-0.731D-03 0.105D-02 0.920D-03
 Coeff-Com: -0.196D-01 0.124D+00-0.570D+00 0.146D+01
 Coeff:      0.775D-04-0.267D-03 0.498D-03-0.731D-03 0.105D-02 0.920D-03
 Coeff:     -0.196D-01 0.124D+00-0.570D+00 0.146D+01
 Gap=     0.363 Goal=   None    Shift=    0.000
 RMSDP=4.46D-08 MaxDP=2.11D-07 DE=-5.37D-12 OVMax= 3.80D-07

 Cycle  11  Pass 1  IDiag  3:
 E= 0.527508082470490     Delta-E=       -0.000000000001 Rises=F Damp=F
 DIIS: error= 4.99D-09 at cycle  11 NSaved=  11.
 NSaved=11 IEnMin=11 EnMin= 0.527508082470490     IErMin=11 ErrMin= 4.99D-09
 ErrMax= 4.99D-09  0.00D+00 EMaxC= 1.00D-01 BMatC= 1.84D-15 BMatP= 4.59D-14
 IDIUse=1 WtCom= 1.00D+00 WtEn= 0.00D+00
 Coeff-Com: -0.337D-05 0.120D-04-0.240D-04 0.557D-04-0.281D-03 0.878D-03
 Coeff-Com: -0.133D-03-0.139D-01 0.117D+00-0.490D+00 0.139D+01
 Coeff:     -0.337D-05 0.120D-04-0.240D-04 0.557D-04-0.281D-03 0.878D-03
 Coeff:     -0.133D-03-0.139D-01 0.117D+00-0.490D+00 0.139D+01
 Gap=     0.363 Goal=   None    Shift=    0.000
 RMSDP=8.29D-09 MaxDP=3.47D-08 DE=-5.40D-13 OVMax= 8.09D-08

 Cycle  12  Pass 2  IDiag  1:
 SCF Done:  E(RAM1) =  0.527508082470     A.U. after   12 cycles
            NFock= 11  Conv=0.83D-08     -V/T= 1.0389
 KE=-1.355193046750D+01 PE=-1.552666343599D+02 EE= 7.595286297528D+01
 Leave Link  502 at Tue Apr  5 11:44:11 2016, MaxMem=    33554432 cpu:         0.0
 (Enter /home/dustin/Applications/g09/g09/l701.exe)
 Compute integral first derivatives.
 ... and contract with generalized density number  0.
 Leave Link  701 at Tue Apr  5 11:44:11 2016, MaxMem=    33554432 cpu:         0.0
 (Enter /home/dustin/Applications/g09/g09/l702.exe)
 L702 exits ... SP integral derivatives will be done elsewhere.
 Leave Link  702 at Tue Apr  5 11:44:11 2016, MaxMem=    33554432 cpu:         0.0
 (Enter /home/dustin/Applications/g09/g09/l703.exe)
 Compute integral first derivatives, UseDBF=F ICtDFT=           0.
 Integral derivatives from FoFJK, PRISM(SPDF).
 Calling FoFJK, ICntrl=      2127 FMM=F ISym2X=0 I1Cent= 0 IOpClX= 0 NMat=1 NMatS=1 NMatT=0.
 FoFJK:  IHMeth= 8 ICntrl=    2127 DoSepK=F KAlg= 0 I1Cent=   0 FoldK=F
 IRaf=         0 NMat=   1 IRICut=       1 DoRegI=T DoRafI=F ISym2E= 0.
 FoFCou: FMM=F IPFlag=           0 FMFlag=      100000 FMFlg1=         800
         NFxFlg=           0 DoJE=F BraDBF=F KetDBF=F FulRan=T
         wScrn=  0.000000 ICntrl=    2127 IOpCl=  0 I1Cent=           0 NGrid=           0
         NMat0=    1 NMatS0=      1 NMatT0=    0 NMatD0=    1 NMtDS0=    0 NMtDT0=    0
 Symmetry not used in FoFCou.
 Leave Link  703 at Tue Apr  5 11:44:11 2016, MaxMem=    33554432 cpu:         0.0
 (Enter /home/dustin/Applications/g09/g09/l716.exe)
 Dipole        = 5.10259016D-01-7.62445315D-03-9.65009456D-03
 ***** Axes restored to original set *****
 -------------------------------------------------------------------
 Center     Atomic                   Forces (Hartrees/Bohr)
 Number     Number              X              Y              Z
 -------------------------------------------------------------------
      1        6          -0.008940041   -0.000222259   -0.004524344
      2        6           0.008465620    0.002495235    0.003220744
      3        6           0.011452096   -0.001231058    0.002378289
      4        6          -0.010367134   -0.001103464   -0.000380995
      5        1           0.001107857   -0.000509624    0.000378062
      6        1          -0.001558125   -0.000041696   -0.000087927
      7        1          -0.000562781    0.003837278    0.000683585
      8        1           0.002566992   -0.000399456    0.000966128
      9       16          -0.002164484   -0.002824956   -0.002633541
 -------------------------------------------------------------------
[...]
     26  0.336009D-04  0.000000D+00  0.000000D+00  0.473001D-05  0.352176D-05
     27  0.282494D-04 -0.135982D-05  0.773379D-05  0.256354D-05  0.000000D+00
     28  0.920715D-05 -0.170517D-05  0.445336D-05  0.000000D+00 -0.810075D-05
     29  0.273646D-04  0.000000D+00  0.302125D-05  0.258531D-05  0.110794D-05
     30  0.832236D-05  0.000000D+00  0.000000D+00  0.000000D+00 -0.696744D-05
     31  0.177193D-04  0.000000D+00  0.000000D+00  0.000000D+00  0.145441D-04
     32  0.339808D-04  0.000000D+00  0.000000D+00  0.271077D-05  0.118372D-04
     33 -0.214730D-04  0.000000D+00  0.951467D-05 -0.144523D-05 -0.902671D-05
     34  0.000000D+00  0.115401D-05  0.125410D-04  0.000000D+00  0.000000D+00
     35 -0.165654D-04 -0.327513D-05 -0.804958D-05 -0.234700D-05 -0.207063D-04
     36  0.484891D-05 -0.294442D-05 -0.502321D-05  0.000000D+00 -0.122515D-04
     37  0.128352D-04  0.391326D-05  0.631748D-05 -0.390536D-05 -0.513431D-05
     38 -0.784247D-05 -0.758437D-05  0.377123D-05 -0.299037D-05 -0.128511D-04
               11            12            13            14            15 
     11  0.759033D-01
     12 -0.397449D-01  0.772278D-01
     13 -0.932349D-02 -0.957638D-02  0.659766D-01
     14  0.166909D-01  0.196081D-01 -0.415844D-01  0.757989D-01
     15 -0.736736D-02 -0.100317D-01 -0.243922D-01 -0.342145D-01  0.586067D-01
     16 -0.880831D-03  0.385942D-02  0.146287D-03 -0.243590D-03  0.973035D-04
     17  0.415361D-02 -0.494598D-02 -0.253865D-03  0.241946D-02 -0.216559D-02
     18 -0.327277D-02  0.108655D-02  0.107580D-03 -0.217587D-02  0.206829D-02
     19  0.206713D-01  0.203306D-01 -0.297318D-02  0.779873D-03  0.219331D-02
     20 -0.106973D-01 -0.963269D-02  0.385743D-02 -0.494704D-02  0.108961D-02
     21 -0.997399D-02 -0.106979D-01 -0.884253D-03  0.416717D-02 -0.328292D-02
     22 -0.535735D-02  0.249023D-02  0.259116D-01 -0.426993D-01  0.167877D-01
     23  0.718903D-05 -0.196880D-04  0.625235D-05 -0.386606D-05 -0.424237D-05
     24 -0.549562D-05 -0.340113D-05 -0.246887D-05  0.109411D-04 -0.624734D-05
     25 -0.206625D-04  0.183447D-04  0.377872D-05 -0.359597D-05 -0.235742D-05
     26 -0.333472D-04  0.346316D-04 -0.494250D-05  0.112112D-04 -0.436239D-05
     27  0.108847D-04 -0.404927D-05 -0.388080D-05  0.778739D-05 -0.494152D-05
     28  0.214730D-04 -0.859101D-05 -0.603570D-05  0.896045D-05 -0.343279D-05
     29 -0.376008D-04  0.327431D-04  0.000000D+00  0.806219D-05 -0.783059D-05
     30 -0.270125D-04  0.282014D-04 -0.311357D-05  0.923524D-05 -0.632185D-05
     31 -0.674358D-05 -0.454166D-05  0.156162D-05 -0.796289D-05  0.420696D-05
     32 -0.185011D-04  0.872872D-05  0.958515D-05  0.000000D+00 -0.906046D-05
     33  0.866689D-05 -0.129922D-05 -0.151610D-05  0.283924D-05  0.000000D+00
     34 -0.230679D-05  0.331919D-05  0.000000D+00  0.195682D-05 -0.233610D-05
     35  0.233036D-05  0.143267D-04 -0.539945D-05  0.749538D-05 -0.277567D-05
     36 -0.864331D-05  0.189451D-04 -0.333661D-05  0.661296D-05 -0.450132D-05
     37  0.964206D-05 -0.397079D-05  0.000000D+00  0.331894D-05 -0.243031D-05
     38  0.361147D-05  0.772969D-05 -0.263883D-05  0.672441D-05 -0.366051D-05
               16            17            18            19            20 
     16  0.660596D-01
     17 -0.415956D-01  0.757619D-01
     18 -0.244640D-01 -0.341663D-01  0.586303D-01
     19  0.189230D-01 -0.363188D-01  0.173957D-01  0.736454D-01
     20 -0.958696D-02  0.196100D-01 -0.100230D-01 -0.374808D-01  0.772315D-01
     21 -0.933606D-02  0.167088D-01 -0.737273D-02 -0.361646D-01 -0.397508D-01
     22  0.258948D-01 -0.426550D-01  0.167602D-01  0.289536D-02  0.248783D-02
     23  0.000000D+00 -0.138137D-05  0.000000D+00 -0.621133D-05  0.335323D-05
     24  0.000000D+00  0.100759D-04 -0.869955D-05 -0.169509D-04  0.712600D-05
     25 -0.186721D-05  0.000000D+00  0.218435D-05 -0.620335D-05  0.285072D-05
     26 -0.128802D-05  0.106752D-04 -0.599700D-05 -0.169429D-04  0.662349D-05
     27 -0.311839D-05  0.115665D-04 -0.558216D-05 -0.923382D-05  0.299429D-05
     28 -0.740900D-05  0.977213D-05  0.000000D+00  0.000000D+00 -0.265135D-05
     29  0.154063D-05  0.518836D-05 -0.532126D-05 -0.109651D-04  0.490811D-05
     30 -0.274998D-05  0.339402D-05  0.000000D+00 -0.164913D-05  0.000000D+00
     31 -0.307181D-05 -0.874551D-05  0.733810D-05 -0.268887D-05  0.000000D+00
     32 -0.256024D-05  0.125358D-05  0.000000D+00 -0.126945D-04  0.373672D-05
     33 -0.106712D-04  0.876599D-05  0.704197D-05  0.721893D-05 -0.315074D-05
     34 -0.626160D-05  0.105927D-04  0.169121D-05 -0.252720D-05 -0.150569D-05
     35 -0.109350D-04  0.660038D-05 -0.182909D-05  0.111712D-04 -0.596007D-05
     36 -0.652537D-05  0.842709D-05 -0.717984D-05  0.142511D-05 -0.431502D-05
     37  0.128244D-04 -0.549418D-05 -0.125328D-05  0.131113D-04 -0.871562D-05
     38 -0.302454D-04  0.344072D-05  0.232039D-04  0.121926D-04 -0.933632D-05
               21            22            23            24            25 
     21  0.759154D-01
     22 -0.538319D-02  0.795918D-01
     23  0.294953D-05  0.149938D-05  0.915633D-02
     24  0.100482D-04 -0.109419D-04  0.837703D-04  0.109590D-01
     25  0.332827D-05  0.447764D-05  0.388926D-02 -0.674056D-02  0.108039D-01
     26  0.104270D-04 -0.796363D-05 -0.518329D-02  0.413467D-02  0.174072D-03
     27  0.586382D-05 -0.337143D-05 -0.285831D-02 -0.791702D-02  0.473281D-02
     28  0.277599D-05 -0.884703D-05 -0.107242D-02 -0.355569D-02  0.425720D-02
     29  0.579315D-05 -0.111779D-05  0.223113D-02 -0.132281D-02 -0.194864D-02
     30  0.270533D-05 -0.659338D-05  0.401702D-02  0.303852D-02 -0.242424D-02
     31  0.275640D-05  0.552039D-05  0.189489D-02 -0.883087D-02  0.552752D-02
     32  0.904096D-05 -0.213553D-05 -0.585973D-02  0.464552D-03 -0.355815D-02
     33 -0.380763D-05 -0.112385D-04  0.701405D-03  0.418502D-02 -0.114792D-02
     34  0.369067D-05 -0.586596D-05 -0.114666D-02 -0.328136D-03 -0.655752D-03
     35 -0.487326D-05 -0.105021D-04  0.418646D-02  0.863894D-03 -0.327092D-03
     36  0.262505D-05 -0.512957D-05  0.233840D-02 -0.364926D-02  0.165071D-03
     37 -0.457555D-05 -0.272143D-05 -0.348822D-02  0.441830D-02 -0.288969D-02
     38 -0.296986D-05 -0.102803D-04 -0.503634D-03  0.157410D-02 -0.218673D-02
               26            27            28            29            30 
     26  0.949203D-02
     27 -0.325899D-03  0.106033D-01
     28  0.177393D-02  0.326521D-02  0.730389D-02
     29 -0.550257D-02  0.326816D-02 -0.188471D-02  0.730703D-02
     30 -0.340274D-02 -0.406995D-02  0.215396D-02  0.215416D-02  0.837807D-02
     31 -0.519824D-02  0.295405D-02  0.237669D-02 -0.556089D-03 -0.113345D-02
     32  0.276613D-02 -0.136980D-02  0.254148D-03 -0.359376D-02 -0.196981D-02
     33  0.233570D-02 -0.286079D-02  0.222810D-02 -0.107383D-02  0.401505D-02
     34  0.162774D-03  0.473277D-02 -0.195117D-02  0.425842D-02 -0.242552D-02
     35 -0.364966D-02 -0.792053D-02 -0.132084D-02 -0.355916D-02  0.304052D-02
     36 -0.582258D-02 -0.326967D-03 -0.550011D-02  0.177309D-02 -0.340005D-02
     37  0.501683D-02  0.295617D-02 -0.556754D-03  0.237781D-02 -0.113512D-02
     38 -0.109004D-03 -0.137697D-02 -0.359605D-02  0.249380D-03 -0.196970D-02
               31            32            33            34            35 
     31  0.951874D-02
     32  0.351061D-03  0.575665D-02
     33 -0.348636D-02 -0.508797D-03  0.915592D-02
     34 -0.288890D-02 -0.218928D-02  0.388988D-02  0.108065D-01
     35  0.442161D-02  0.158170D-02  0.870394D-04 -0.674239D-02  0.109689D-01
     36  0.501907D-02 -0.987812D-04 -0.517900D-02  0.174230D-03  0.413942D-02
     37 -0.787258D-02 -0.111461D-02  0.189191D-02  0.552712D-02 -0.883679D-02
     38 -0.110022D-02  0.675681D-03 -0.587464D-02 -0.357831D-02  0.482357D-03
               36            37            38 
     36  0.949265D-02
     37 -0.520157D-02  0.952076D-02
     38  0.277869D-02  0.332748D-03  0.577687D-02
 Leave Link  716 at Tue Apr  5 11:44:12 2016, MaxMem=    33554432 cpu:         0.0
 (Enter /home/dustin/Applications/g09/g09/l103.exe)

 GradGradGradGradGradGradGradGradGradGradGradGradGradGradGradGradGradGrad
 Berny optimization.
 Red2BG is reusing G-inverse.
 Internal  Forces:  Max     0.053984508 RMS     0.014691808
 Search for a local minimum.
 Step number   1 out of a maximum of    2
 All quantities printed in internal units (Hartrees-Bohrs-Radians)
 Second derivative matrix not updated -- analytic derivatives used.
 ITU=  0
     Eigenvalues ---   -0.00927   0.01052   0.01138   0.02303   0.02343
     Eigenvalues ---    0.03445   0.04220   0.07758   0.09029   0.10958
     Eigenvalues ---    0.11403   0.13894   0.18211   0.19857   0.36933
     Eigenvalues ---    0.37470   0.38981   0.39187   0.47067   0.54026
     Eigenvalues ---    0.80170
 Eigenvalue     1 is  -9.27D-03 should be greater than     0.000000 Eigenvector:
                          R5        R8        A4        A7        A8
   1                    0.65030  -0.64601   0.20264  -0.20153   0.13352
                          A5        R1        R6        A12       A2
   1                   -0.13344  -0.09123   0.09044  -0.06946   0.06940
 Quadratic step=4.299D-01 exceeds max=3.000D-01 adjusted using Lamda=-4.579D-02.
 Angle between NR and scaled steps=   8.27 degrees.
 Angle between quadratic step and forces=  39.11 degrees.
 Linear search not attempted -- first point.
 Iteration  1 RMS(Cart)=  0.02799234 RMS(Int)=  0.00104707
 Iteration  2 RMS(Cart)=  0.00143256 RMS(Int)=  0.00035618
 Iteration  3 RMS(Cart)=  0.00000043 RMS(Int)=  0.00035618
 ITry= 1 IFail=0 DXMaxC= 8.68D-02 DCOld= 1.00D+10 DXMaxT= 3.00D-01 DXLimC= 3.00D+00 Rises=F
 Variable       Old X    -DE/DX   Delta X   Delta X   Delta X     New X
                                 (Linear)    (Quad)   (Total)
    R1        2.53260   0.05384   0.00000   0.09358   0.09335   2.62595
    R2        2.70170  -0.03827   0.00000  -0.10647  -0.10704   2.59466
    R3        2.04576   0.00268   0.00000   0.00438   0.00438   2.05014
    R4        2.02103   0.00267   0.00000   0.00489   0.00489   2.02592
    R5        3.30800  -0.01537   0.00000  -0.12319  -0.12276   3.18523
    R6        2.53254   0.05398   0.00000   0.09359   0.09336   2.62589
    R7        2.02145   0.00255   0.00000   0.00451   0.00451   2.02596
    R8        3.30679  -0.01542   0.00000  -0.12146  -0.12103   3.18576
    R9        2.04609   0.00256   0.00000   0.00410   0.00410   2.05018
    A1        1.98456   0.00038   0.00000   0.00168   0.00087   1.98543
    A2        2.17556   0.00052   0.00000  -0.02270  -0.02229   2.15327
    A3        2.12306  -0.00090   0.00000   0.02102   0.02142   2.14448
    A4        2.28957  -0.00254   0.00000  -0.05715  -0.05720   2.23237
    A5        1.92898  -0.00660   0.00000  -0.03415  -0.03404   1.89494
    A6        2.06463   0.00914   0.00000   0.09129   0.09124   2.15587
    A7        2.28810  -0.00243   0.00000  -0.05602  -0.05608   2.23202
    A8        1.92923  -0.00663   0.00000  -0.03451  -0.03440   1.89483
    A9        2.06585   0.00906   0.00000   0.09054   0.09048   2.15633
   A10        1.98479   0.00035   0.00000   0.00142   0.00061   1.98540
   A11        2.12300  -0.00089   0.00000   0.02107   0.02148   2.14448
   A12        2.17540   0.00054   0.00000  -0.02249  -0.02209   2.15331
   A13        1.59721   0.01250   0.00000   0.06555   0.06696   1.66417
    D1       -3.14087  -0.00002   0.00000  -0.00028  -0.00028  -3.14115
    D2        0.00046  -0.00001   0.00000  -0.00018  -0.00018   0.00029
    D3       -0.00029   0.00001   0.00000   0.00015   0.00014  -0.00015
    D4        3.14104   0.00002   0.00000   0.00025   0.00024   3.14129
    D5       -0.00072   0.00003   0.00000   0.00032   0.00032  -0.00040
    D6        3.14082   0.00002   0.00000   0.00030   0.00030   3.14111
    D7       -3.14133   0.00000   0.00000  -0.00006  -0.00007  -3.14140
    D8        0.00020  -0.00001   0.00000  -0.00009  -0.00009   0.00011
    D9       -0.00010   0.00000   0.00000   0.00002   0.00001  -0.00009
   D10        3.14127   0.00001   0.00000   0.00009   0.00009   3.14136
   D11        3.14150   0.00001   0.00000   0.00008   0.00007   3.14157
   D12       -0.00004   0.00001   0.00000   0.00010   0.00009   0.00006
   D13        0.00061  -0.00002   0.00000  -0.00030  -0.00030   0.00031
   D14       -3.14092  -0.00002   0.00000  -0.00028  -0.00028  -3.14120
   D15       -0.00030   0.00002   0.00000   0.00018   0.00018  -0.00012
   D16       -3.14129   0.00000   0.00000  -0.00009  -0.00011  -3.14139
         Item               Value     Threshold  Converged?
 Maximum Force            0.053985     0.000450     NO 
 RMS     Force            0.014692     0.000300     NO 
 Maximum Displacement     0.086810     0.001800     NO 
 RMS     Displacement     0.027782     0.001200     NO 
 Predicted change in Energy=-1.263097D-02
 GradGradGradGradGradGradGradGradGradGradGradGradGradGradGradGradGradGrad

 Leave Link  103 at Tue Apr  5 11:44:12 2016, MaxMem=    33554432 cpu:         0.0
 (Enter /home/dustin/Applications/g09/g09/l9999.exe)
 1\1\GINC-DUSTIN-DESKTOP\Freq\RAM1-Full\STO-3G\C4H4S1\DUSTIN\05-Apr-201
 6\0\\#P AM1(Input,Print) CIS(Singlets,NStates=10) pop(full) freq geom=
 Checkpoint\\best1\\0,1\C,0.8737270755,-0.6899773583,-0.0318009199\C,-0
 .3568155158,-1.2207845998,-0.0203710931\C,-0.3389710144,1.2855087101,0
 .0594713265\C,0.8838249895,0.7389262398,0.0142259931\H,1.8093957709,1.
 300746205,0.0116072509\H,-0.6511721753,2.3078487316,0.0996751075\H,-0.
 6850793349,-2.2383407593,-0.0451016183\H,1.7910986098,-1.26344095,-0.0
 707960514\S,-1.5686594054,0.040595781,0.0478850047\\Version=ES64L-G09R
 evD.01\State=1-A\HF=0.5270033\RMSD=4.278e-09\RMSF=2.948e-02\ZeroPoint=
 0.0650951\Thermal=0.0695535\Dipole=1.1772841,-0.0074572,-0.0272745\Dip
 oleDeriv=-0.1555483,-0.8112025,-0.0239331,-0.7388317,-0.4037198,0.0054
 189,-0.0212087,0.0073047,-0.0529606,0.8877804,1.2452301,0.0268926,-0.2
 219352,0.3331362,0.006387,-0.020738,-0.0275365,0.2995601,0.8804762,-1.
 2503946,-0.0539386,0.2167504,0.3458892,-0.0033034,-0.0065099,0.030131,
 0.3013407,-0.1359461,0.8058475,0.0282405,0.7369551,-0.4234207,-0.02892
 8,0.0256656,-0.0301843,-0.0551689,-0.1221635,-0.0474637,0.001758,-0.03
 54616,-0.0611395,-0.0018942,0.002131,-0.0015434,0.0218185,-0.057281,-0
 .0457899,-0.0001052,-0.013097,-0.0379854,-0.0010061,0.0010088,-0.00038
 73,0.0027684,-0.0560799,0.0458327,0.0028399,0.0132416,-0.0384566,-0.00
 16502,0.0017632,-0.0024353,0.0027053,-0.1212187,0.0481659,0.0047875,0.
 0359144,-0.0622259,-0.0035095,0.0042802,-0.0036803,0.0217383,-1.120019
 3,0.0097745,0.0134586,0.0064641,0.3479202,0.0284852,0.0136078,0.028331
 7,-0.5417968\Polar=65.8619728,0.0543461,70.4911374,-1.3026493,1.976306
 7,8.9783004\PG=C01 [X(C4H4S1)]\NImag=1\\0.89619244,0.00752570,0.673946
 99,-0.01726014,0.01714935,0.13411645,-0.46140475,-0.10878371,0.0060731
 0,0.56575489,-0.22277989,-0.13357385,0.00244383,0.33273356,0.59134636,
 0.00240532,-0.00017633,-0.04896731,-0.00000623,0.00783977,0.10485606,-
 0.06574955,0.03992613,0.00292243,0.10802980,0.00381447,-0.00222471,0.5
 5690072,0.07292196,-0.05571385,-0.00363643,-0.00594007,-0.06678310,-0.
 00219367,-0.33065578,0.60022018,0.00396916,-0.00289079,0.00533573,-0.0
 0252292,-0.00240516,0.00593894,-0.02086338,0.02350697,0.10590915,-0.04
 412683,-0.01357124,-0.00128406,-0.06712805,-0.07291816,-0.00067110,-0.
 45694439,0.22690902,0.01652509,0.89611871,0.00929340,-0.35076611,-0.00
 895684,-0.04006055,-0.05425980,-0.00101091,0.11311456,-0.13794109,-0.0
 0540978,-0.01004583,0.67441108,-0.00053041,-0.00844623,-0.08068897,0.0
 0036822,-0.00025942,0.00548811,0.01286380,-0.00799814,-0.04942135,-0.0
 1755335,0.01770835,0.13413895,0.00135620,-0.00514504,-0.00002971,-0.00
 302118,-0.00303162,0.00006745,-0.04343106,-0.01482267,0.00070577,-0.24
 652323,-0.12355442,0.00060581,0.28935952,-0.02539302,-0.02427229,-0.00
 045695,-0.00481691,-0.00381752,-0.00015045,0.01090886,0.00827564,-0.00
 026925,-0.12388305,-0.11754087,0.00032824,0.14204475,0.14009498,-0.000
 66862,-0.00089453,0.00749096,-0.00001541,-0.00020097,0.00424244,0.0015
 3915,0.00030418,0.00892729,0.00059370,0.00032341,-0.04165172,-0.001425
 79,0.00063928,0.02168963,-0.00352543,-0.00017673,0.00019804,-0.0006421
 2,0.00146896,0.00009689,-0.05729762,0.08084094,0.00297033,-0.01357074,
 0.03406523,0.00164597,0.00106022,-0.00006859,-0.00006046,0.07354031,0.
 00078037,-0.00080727,-0.00022051,-0.00063079,0.00204556,0.00003143,0.0
 9563439,-0.32399666,-0.01130886,0.00795420,-0.01428469,-0.00098370,0.0
 0046685,0.00029693,0.00004976,-0.10115507,0.35715386,0.00022207,-0.000
 20143,0.00546998,0.00003861,-0.00001350,0.00151449,0.00344224,-0.01098
 111,-0.04213790,0.00080491,-0.00157647,0.01045400,-0.00004361,0.000061
 66,-0.00154376,-0.00448798,0.01319664,0.02070206,-0.01418455,-0.034070
 49,-0.00051488,-0.06008678,-0.08517494,-0.00227666,-0.00063228,-0.0014
 4518,0.00000322,-0.00354544,0.00021372,0.00021506,0.00009546,-0.000292
 41,-0.00004285,0.00032224,0.00028733,-0.00002649,0.07671594,-0.0079597
 8,-0.01369185,-0.00058718,-0.09999831,-0.32175016,-0.00658748,0.000651
 46,0.00206674,0.00000306,-0.00074629,-0.00080638,-0.00018245,0.0000799
 9,-0.00070415,0.00001736,-0.00029426,-0.00035242,0.00003448,0.10576015
 ,0.35455628,0.00031392,0.00001870,0.01050342,-0.00275313,-0.00693126,-
 0.04178499,0.00006899,0.00005208,0.00150715,0.00018762,-0.00020711,0.0
 0547859,-0.00002932,0.00002836,-0.00131744,-0.00004503,0.00002205,-0.0
 0123086,0.00205161,0.00818455,0.02031705,-0.24317986,0.12517775,0.0085
 4927,-0.04338241,0.01547930,0.00168882,-0.00292623,0.00300453,0.000257
 58,0.00178030,0.00477825,0.00028204,0.00070863,-0.00002044,-0.00004370
 ,0.00010071,-0.00008773,-0.00003529,0.00105709,-0.00047520,-0.00007475
 ,0.28548629,0.12551525,-0.12074705,-0.00536251,-0.01026289,0.00822441,
 0.00021128,0.00478411,-0.00390962,-0.00037234,0.02503106,-0.02467293,-
 0.00160114,0.00000990,-0.00030236,0.00002979,0.00028358,-0.00070695,0.
 00001311,0.00006359,0.00030095,0.00005753,-0.14386809,0.14378195,0.008
 54850,-0.00535088,-0.04196501,0.00087061,-0.00037227,0.00892274,0.0003
 2081,-0.00033371,0.00422984,0.00093130,-0.00114219,0.00744651,-0.00004
 369,0.00003114,-0.00124754,-0.00002292,0.00002180,-0.00131569,-0.00005
 816,0.00006998,-0.00154093,-0.01056755,0.00716031,0.02205405,-0.065377
 56,-0.01088198,0.00134596,-0.03811897,0.03040825,0.00092019,-0.0379489
 6,-0.03081270,-0.00104487,-0.06606023,0.01219525,0.00210285,0.00039530
 ,0.00152084,0.00012399,0.00001231,-0.00324951,0.00008554,0.00025821,0.
 00298220,0.00028010,0.00035534,-0.00155657,0.00002110,0.20648408,0.040
 09590,0.02562513,-0.00037276,-0.06224031,-0.02143217,0.00203637,0.0618
 2174,-0.02221851,-0.00085386,-0.03872962,0.02586062,0.00143448,0.00395
 220,-0.00203038,-0.00026828,-0.01496413,-0.01934828,-0.00053337,0.0146
 5830,-0.01961892,-0.00122488,-0.00398832,-0.00196843,-0.00008418,-0.00
 060577,0.03513168,0.00300020,0.00079215,0.00870482,-0.00205287,-0.0001
 0100,-0.04021078,0.00193071,0.00127985,-0.04028906,0.00046588,0.000271
 53,0.00875596,0.00019308,-0.00021202,0.00340996,-0.00029485,-0.0008086
 0,0.00808764,0.00064915,-0.00095232,0.00806803,-0.00005643,-0.00013604
 ,0.00341589,-0.00383484,-0.00013355,0.04005825\\-0.04643759,-0.0618160
 2,-0.00100351,0.07028692,0.01326957,-0.00118439,0.07018974,-0.01437506
 ,-0.00211174,-0.04580576,0.06244559,0.00309794,-0.00254678,-0.00073347
 ,0.00004429,-0.00468746,-0.00410312,-0.00001106,-0.00467435,0.00431094
 ,0.00025407,-0.00263746,0.00082629,0.00011211,-0.03368727,0.00017526,0
 .00080230\\\@


 IF YOU WANT TO LEARN FROM THE THEORETICAL PHYSICISTS ABOUT THE
 METHODS WHICH THEY USE, I ADVISE YOU TO FOLLOW THIS PRINCIPLE VERY STRICTLY:
 DON'T LISTEN TO THEIR WORDS; PAY ATTENTION, INSTEAD, TO THEIR ACTIONS.
 -- A.EINSTEIN, 1934
 Job cpu time:       0 days  0 hours  0 minutes  0.5 seconds.
 File lengths (MBytes):  RWF=      6 Int=      0 D2E=      0 Chk=      2 Scr=      1
 Normal termination of Gaussian 09 at Tue Apr  5 11:44:12 2016.
