 Entering Gaussian System, Link 0=g09
 Input=best.com
 Output=best.log
 Initial command:
 /home/dustin/Applications/g09/g09/l1.exe "/tmp/Gau-16101.inp" -scrdir="/tmp/"
 Entering Link 1 = /home/dustin/Applications/g09/g09/l1.exe PID=     16103.
  
 Copyright (c) 1988,1990,1992,1993,1995,1998,2003,2009,2013,
            Gaussian, Inc.  All Rights Reserved.
  
 This is part of the Gaussian(R) 09 program.  It is based on
 the Gaussian(R) 03 system (copyright 2003, Gaussian, Inc.),
 the Gaussian(R) 98 system (copyright 1998, Gaussian, Inc.),
 the Gaussian(R) 94 system (copyright 1995, Gaussian, Inc.),
 the Gaussian 92(TM) system (copyright 1992, Gaussian, Inc.),
 the Gaussian 90(TM) system (copyright 1990, Gaussian, Inc.),
 the Gaussian 88(TM) system (copyright 1988, Gaussian, Inc.),
 the Gaussian 86(TM) system (copyright 1986, Carnegie Mellon
 University), and the Gaussian 82(TM) system (copyright 1983,
 Carnegie Mellon University). Gaussian is a federally registered
 trademark of Gaussian, Inc.
  
 This software contains proprietary and confidential information,
 including trade secrets, belonging to Gaussian, Inc.
  
 This software is provided under written license and may be
 used, copied, transmitted, or stored only in accord with that
 written license.
  
 The following legend is applicable only to US Government
 contracts under FAR:
  
                    RESTRICTED RIGHTS LEGEND
  
 Use, reproduction and disclosure by the US Government is
 subject to restrictions as set forth in subparagraphs (a)
 and (c) of the Commercial Computer Software - Restricted
 Rights clause in FAR 52.227-19.
  
 Gaussian, Inc.
 340 Quinnipiac St., Bldg. 40, Wallingford CT 06492
  
  
 ---------------------------------------------------------------
 Warning -- This program may not be used in any manner that
 competes with the business of Gaussian, Inc. or will provide
 assistance to any competitor of Gaussian, Inc.  The licensee
 of this program is prohibited from giving any competitor of
 Gaussian, Inc. access to this program.  By using this program,
 the user acknowledges that Gaussian, Inc. is engaged in the
 business of creating and licensing software in the field of
 computational chemistry and represents and warrants to the
 licensee that it is not a competitor of Gaussian, Inc. and that
 it will not use this program in any manner prohibited above.
 ---------------------------------------------------------------
  

 Cite this work as:
 Gaussian 09, Revision D.01,
 M. J. Frisch, G. W. Trucks, H. B. Schlegel, G. E. Scuseria, 
 M. A. Robb, J. R. Cheeseman, G. Scalmani, V. Barone, B. Mennucci, 
 G. A. Petersson, H. Nakatsuji, M. Caricato, X. Li, H. P. Hratchian, 
 A. F. Izmaylov, J. Bloino, G. Zheng, J. L. Sonnenberg, M. Hada, 
 M. Ehara, K. Toyota, R. Fukuda, J. Hasegawa, M. Ishida, T. Nakajima, 
 Y. Honda, O. Kitao, H. Nakai, T. Vreven, J. A. Montgomery, Jr., 
 J. E. Peralta, F. Ogliaro, M. Bearpark, J. J. Heyd, E. Brothers, 
 K. N. Kudin, V. N. Staroverov, T. Keith, R. Kobayashi, J. Normand, 
 K. Raghavachari, A. Rendell, J. C. Burant, S. S. Iyengar, J. Tomasi, 
 M. Cossi, N. Rega, J. M. Millam, M. Klene, J. E. Knox, J. B. Cross, 
 V. Bakken, C. Adamo, J. Jaramillo, R. Gomperts, R. E. Stratmann, 
 O. Yazyev, A. J. Austin, R. Cammi, C. Pomelli, J. W. Ochterski, 
 R. L. Martin, K. Morokuma, V. G. Zakrzewski, G. A. Voth, 
 P. Salvador, J. J. Dannenberg, S. Dapprich, A. D. Daniels, 
 O. Farkas, J. B. Foresman, J. V. Ortiz, J. Cioslowski, 
 and D. J. Fox, Gaussian, Inc., Wallingford CT, 2013.
 
 ******************************************
 Gaussian 09:  ES64L-G09RevD.01 24-Apr-2013
                 4-Apr-2016 
 ******************************************
 %chk=best
 -----------------------
 #P AM1(Input,Print) opt
 -----------------------
 1/14=-1,18=20,19=15,26=1,38=1/1,3;
 2/9=110,12=2,17=6,18=5,40=1/2;
 3/5=2,16=1,25=1,41=700000,71=1,135=100,136=1/1,2,3;
 4/35=1/1;
 5/5=2,35=1,38=5/2;
 6/7=2,8=2,9=2,10=2,28=1/1;
 7//1,2,3,16;
 1/14=-1,18=20,19=15,26=1/3(2);
 2/9=110/2;
 99//99;
 2/9=110/2;
 3/5=2,16=1,25=1,41=700000,71=1,135=20,136=1/1,2,3;
 4/5=5,16=3,35=1/1;
 5/5=2,35=1,38=5/2;
 7//1,2,3,16;
 1/14=-1,18=20,19=15,26=1/3(-5);
 2/9=110/2;
 6/7=2,8=2,9=2,10=2,19=2,28=1/1;
 99/9=1/99;
 Leave Link    1 at Mon Apr  4 12:35:34 2016, MaxMem=           0 cpu:         0.0
 (Enter /home/dustin/Applications/g09/g09/l101.exe)
 ----
 best
 ----
 Symbolic Z-matrix:
 Charge =  0 Multiplicity = 1
 6                     0.92162  -0.67012   0.0208 
 6                    -0.41017  -1.2216   -0.06871 
 6                    -0.36747   1.27334   0.10675 
 6                     0.87676   0.73582  -0.00951 
 1                     1.78345   1.36466  -0.06737 
 1                    -0.56806   2.30915   0.21707 
 1                    -0.55259  -2.27672   0.09262 
 1                     1.75695  -1.28333  -0.07231 
 16                   -1.68065   0.07637  -0.16362 
 
 NAtoms=      9 NQM=        9 NQMF=       0 NMMI=      0 NMMIF=      0
                NMic=       0 NMicF=      0.
                    Isotopes and Nuclear Properties:
 (Nuclear quadrupole moments (NQMom) in fm**2, nuclear magnetic moments (NMagM)
  in nuclear magnetons)

  Atom         1           2           3           4           5           6           7           8           9
 IAtWgt=          12          12          12          12           1           1           1           1          32
 AtmWgt=  12.0000000  12.0000000  12.0000000  12.0000000   1.0078250   1.0078250   1.0078250   1.0078250  31.9720718
 NucSpn=           0           0           0           0           1           1           1           1           0
 AtZEff=   0.0000000   0.0000000   0.0000000   0.0000000   0.0000000   0.0000000   0.0000000   0.0000000   0.0000000
 NQMom=    0.0000000   0.0000000   0.0000000   0.0000000   0.0000000   0.0000000   0.0000000   0.0000000   0.0000000
 NMagM=    0.0000000   0.0000000   0.0000000   0.0000000   2.7928460   2.7928460   2.7928460   2.7928460   0.0000000
 AtZNuc=   6.0000000   6.0000000   6.0000000   6.0000000   1.0000000   1.0000000   1.0000000   1.0000000  16.0000000
 Leave Link  101 at Mon Apr  4 12:35:34 2016, MaxMem=    33554432 cpu:         0.0
 (Enter /home/dustin/Applications/g09/g09/l103.exe)

 GradGradGradGradGradGradGradGradGradGradGradGradGradGradGradGradGradGrad
 Berny optimization.
 Initialization pass.
                           ----------------------------
                           !    Initial Parameters    !
                           ! (Angstroms and Degrees)  !
 --------------------------                            --------------------------
 ! Name  Definition              Value          Derivative Info.                !
 --------------------------------------------------------------------------------
 ! R1    R(1,2)                  1.4442         estimate D2E/DX2                !
 ! R2    R(1,4)                  1.407          estimate D2E/DX2                !
 ! R3    R(1,8)                  1.0404         estimate D2E/DX2                !
 ! R4    R(2,7)                  1.0768         estimate D2E/DX2                !
 ! R5    R(2,9)                  1.8187         estimate D2E/DX2                !
 ! R6    R(3,4)                  1.3603         estimate D2E/DX2                !
 ! R7    R(3,6)                  1.0608         estimate D2E/DX2                !
 ! R8    R(3,9)                  1.7973         estimate D2E/DX2                !
 ! R9    R(4,5)                  1.1049         estimate D2E/DX2                !
 ! A1    A(2,1,4)              110.5384         estimate D2E/DX2                !
 ! A2    A(2,1,8)              120.6481         estimate D2E/DX2                !
 ! A3    A(4,1,8)              127.7792         estimate D2E/DX2                !
 ! A4    A(1,2,7)              119.1321         estimate D2E/DX2                !
 ! A5    A(1,2,9)              112.0166         estimate D2E/DX2                !
 ! A6    A(7,2,9)              127.9299         estimate D2E/DX2                !
 ! A7    A(4,3,6)              124.5873         estimate D2E/DX2                !
 ! A8    A(4,3,9)              113.0957         estimate D2E/DX2                !
 ! A9    A(6,3,9)              121.8553         estimate D2E/DX2                !
 ! A10   A(1,4,3)              114.9711         estimate D2E/DX2                !
 ! A11   A(1,4,5)              122.9335         estimate D2E/DX2                !
 ! A12   A(3,4,5)              122.0146         estimate D2E/DX2                !
 ! A13   A(2,9,3)               87.5384         estimate D2E/DX2                !
 ! D1    D(4,1,2,7)           -170.7397         estimate D2E/DX2                !
 ! D2    D(4,1,2,9)             -0.8615         estimate D2E/DX2                !
 ! D3    D(8,1,2,7)             20.0215         estimate D2E/DX2                !
 ! D4    D(8,1,2,9)           -170.1003         estimate D2E/DX2                !
 ! D5    D(2,1,4,3)             10.2479         estimate D2E/DX2                !
 ! D6    D(2,1,4,5)           -172.9633         estimate D2E/DX2                !
 ! D7    D(8,1,4,3)            178.5216         estimate D2E/DX2                !
 ! D8    D(8,1,4,5)             -4.6897         estimate D2E/DX2                !
 ! D9    D(1,2,9,3)             -5.9158         estimate D2E/DX2                !
 ! D10   D(7,2,9,3)            162.8616         estimate D2E/DX2                !
 ! D11   D(6,3,4,1)            172.4638         estimate D2E/DX2                !
 ! D12   D(6,3,4,5)             -4.3576         estimate D2E/DX2                !
 ! D13   D(9,3,4,1)            -15.2365         estimate D2E/DX2                !
 ! D14   D(9,3,4,5)            167.9421         estimate D2E/DX2                !
 ! D15   D(4,3,9,2)             11.7943         estimate D2E/DX2                !
 ! D16   D(6,3,9,2)           -175.6678         estimate D2E/DX2                !
 --------------------------------------------------------------------------------
 Trust Radius=3.00D-01 FncErr=1.00D-07 GrdErr=1.00D-07
 Number of steps in this run=     48 maximum allowed number of steps=    100.
 GradGradGradGradGradGradGradGradGradGradGradGradGradGradGradGradGradGrad

 Leave Link  103 at Mon Apr  4 12:35:34 2016, MaxMem=    33554432 cpu:         0.0
 (Enter /home/dustin/Applications/g09/g09/l202.exe)
                          Input orientation:                          
 ---------------------------------------------------------------------
 Center     Atomic      Atomic             Coordinates (Angstroms)
 Number     Number       Type             X           Y           Z
 ---------------------------------------------------------------------
      1          6           0        0.921618   -0.670117    0.020801
      2          6           0       -0.410169   -1.221603   -0.068712
      3          6           0       -0.367467    1.273336    0.106748
      4          6           0        0.876758    0.735820   -0.009506
      5          1           0        1.783452    1.364664   -0.067368
      6          1           0       -0.568059    2.309153    0.217069
      7          1           0       -0.552588   -2.276715    0.092619
      8          1           0        1.756952   -1.283326   -0.072308
      9         16           0       -1.680645    0.076370   -0.163623
 ---------------------------------------------------------------------
                    Distance matrix (angstroms):
                    1          2          3          4          5
     1  C    0.000000
     2  C    1.444232   0.000000
     3  C    2.333696   2.501466   0.000000
     4  C    1.406979   2.343329   1.360343   0.000000
     5  H    2.211530   3.391276   2.159887   1.104937   0.000000
     6  H    3.336721   3.545820   1.060813   2.148071   2.550013
     7  H    2.181650   1.076834   3.554902   3.335990   4.329240
     8  H    1.040422   2.168003   3.328924   2.203551   2.648127
     9  S    2.713490   1.818750   1.797294   2.645550   3.697152
                    6          7          8          9
     6  H    0.000000
     7  H    4.587582   0.000000
     8  H    4.288977   2.519523   0.000000
     9  S    2.523508   2.622057   3.697862   0.000000
 Stoichiometry    C4H4S
 Framework group  C1[X(C4H4S)]
 Deg. of freedom    21
 Full point group                 C1      NOp   1
 Largest Abelian subgroup         C1      NOp   1
 Largest concise Abelian subgroup C1      NOp   1
                         Standard orientation:                         
 ---------------------------------------------------------------------
 Center     Atomic      Atomic             Coordinates (Angstroms)
 Number     Number       Type             X           Y           Z
 ---------------------------------------------------------------------
      1          6           0       -1.365544    0.666948    0.021607
      2          6           0       -0.051790    1.266805    0.026814
      3          6           0       -0.013236   -1.233074    0.107122
      4          6           0       -1.268028   -0.734377   -0.058196
      5          1           0       -2.146785   -1.391181   -0.189661
      6          1           0        0.218590   -2.264923    0.190003
      7          1           0        0.043212    2.319087    0.234777
      8          1           0       -2.216328    1.254343   -0.095065
      9         16           0        1.268306    0.017804   -0.045259
 ---------------------------------------------------------------------
 Rotational constants (GHZ):      7.9164197      4.9074277      3.0436812
 Leave Link  202 at Mon Apr  4 12:35:34 2016, MaxMem=    33554432 cpu:         0.0
 (Enter /home/dustin/Applications/g09/g09/l301.exe)

 Semi-emprical parameters in input format:
 Method=8 CoreType=1 PeptideFC=0.0115813645 RIJScale=0.5291772086
 ****
 H       
 PQN=1 NValence=1 F0ss=0.4305859188 ZetaOverlap=1.2049882087 U=-0.4189691428
 Beta=-0.2161095214 CoreKO=1.0488708569 KON=0,0,0,1.0171631126 KON=1,0,1,1.0589197790
 KON=0,1,1,1.0589197790 KON=2,1,1,1.0589197790 EISol=-0.4188110042 EHeat=0.0830298228
 Alpha=1.5252601686
 GCore=0.0085277107,1.4001425905,2.2633912063
 GCore=0.0003382177,1.4294003553,3.5354159128
 GCore=-0.0013139269,0.5600570362,3.9684248791
 ****
 C       
 PQN=2,2 NValence=4 F0ss=0.4478367758 F0sp=0.4215147623 F0pp=0.3759224541 F2pp=0.1801054510
 G1sp=0.2613968729
 ZetaOverlap=1.8226714975,1.5637296242
 U=-1.9663092920,-1.4679628191
 Beta=-0.6190518029,-0.2836784428 DDN=0,1,0.8458762323 DDN=1,1,0.7060741323
 CoreKO=1.0449172975 KON=0,0,0,1.1124284736 KON=1,0,1,0.8484813696 KON=0,1,1,1.1399886655
 KON=2,1,1,0.7783928119 EISol=-4.4398989268 EHeat=0.2723305520 Alpha=1.4014062429
 DipHyp=1.6916551366
 GCore=0.0007885612,1.4052753055,3.5013577594
 GCore=0.0033292985,1.4001425905,3.4959933458
 GCore=-0.0013196868,1.4211052049,3.9077570272
 GCore=-0.0000892872,1.3774926461,5.0077742521
 ****
 S       
 PQN=3,3 NValence=6 F0ss=0.4331396397 F0sp=0.3188254963 F0pp=0.3136271218 F2pp=0.3456917167
 G1sp=0.2791629797
 ZetaOverlap=2.2928078760,1.7303847570,0.9805994118
 U=-2.1542460346,-1.7903186861
 Beta=-0.1472236126,-0.2905136336 DDN=0,1,0.8980720022 DDN=1,1,1.0036329000
 CoreKO=1.2938683185 KON=0,0,0,1.0797469645 KON=1,0,1,0.8675650550 KON=0,1,1,1.1543033468
 KON=2,1,1,0.8057671925 EISol=-7.0460287497 EHeat=0.1058151363 Alpha=1.2170196144
 DipHyp=1.7960406707
 GCore=-0.0317270650,1.2863644833,1.5491231084
 GCore=-0.0008238398,1.6425719595,2.9558459823
 GCore=0.0008565489,3.7964407093,3.8030664189
 ****
 
 Standard basis: VSTO-6G (5D, 7F)
 Ernie: Thresh=  0.10000D-02 Tol=  0.10000D-05 Strict=F.
  NNHCO=     0 NNPyr=     0 NCTC=     0               EPep=         0.000000000
    EC=        63.056441686  ECS=         1.642774303   EG=         0.149596600
   EHC=         0.000000000  EAt=       -26.480868474  AtH=         1.527256636
 EPDDG=         0.000000000  ECC=        64.848812588 EAtT=        28.008125109
 There are    24 symmetry adapted cartesian basis functions of A   symmetry.
 There are    24 symmetry adapted basis functions of A   symmetry.
    24 basis functions,   144 primitive gaussians,    24 cartesian basis functions
    13 alpha electrons       13 beta electrons
       nuclear repulsion energy        92.8569376975 Hartrees.
 IExCor=    0 DFT=F Ex=HF Corr=None ExCW=0 ScaHFX=  1.000000
 ScaDFX=  1.000000  1.000000  1.000000  1.000000 ScalE2=  1.000000  1.000000
 IRadAn=      0 IRanWt=     -1 IRanGd=            0 ICorTp=0 IEmpDi=  4
 Integral buffers will be    131072 words long.
 Regular integral format.
 Two-electron integral symmetry is turned off.
 Leave Link  301 at Mon Apr  4 12:35:34 2016, MaxMem=    33554432 cpu:         0.0
 (Enter /home/dustin/Applications/g09/g09/l302.exe)
 Do NDO integrals.
 NPDir=0 NMtPBC=     1 NCelOv=     1 NCel=       1 NClECP=     1 NCelD=      1
         NCelK=      1 NCelE2=     1 NClLst=     1 CellRange=     0.0.
 One-electron integrals computed using PRISM.
 NBasis=    24 RedAO= F EigKep=  0.00D+00  NBF=    24
 NBsUse=    24 1.00D-04 EigRej=  0.00D+00 NBFU=    24
 Leave Link  302 at Mon Apr  4 12:35:34 2016, MaxMem=    33554432 cpu:         0.0
 (Enter /home/dustin/Applications/g09/g09/l303.exe)
 DipDrv:  MaxL=1.
 Leave Link  303 at Mon Apr  4 12:35:34 2016, MaxMem=    33554432 cpu:         0.0
 (Enter /home/dustin/Applications/g09/g09/l401.exe)
 Simple Huckel Guess.
 JPrj=0 DoOrth=F DoCkMO=F.
 Leave Link  401 at Mon Apr  4 12:35:34 2016, MaxMem=    33554432 cpu:         0.0
 (Enter /home/dustin/Applications/g09/g09/l502.exe)
 Closed shell SCF:
 Using DIIS extrapolation, IDIIS=  1040.
 Overlap will be assumed to be unity.
 Two-electron integral symmetry not used.
 Keep J ints in memory in canonical form, NReq=888082.
 IVT=       79475 IEndB=       79475 NGot=    33554432 MDV=    33473473
 LenX=    33473473 LenY=    33472456
 Requested convergence on RMS density matrix=1.00D-08 within 128 cycles.
 Requested convergence on MAX density matrix=1.00D-06.
 Requested convergence on             energy=1.00D-06.
 No special actions if energy rises.
 FoFCou: FMM=F IPFlag=           0 FMFlag=           0 FMFlg1=           0
         NFxFlg=           0 DoJE=F BraDBF=F KetDBF=F FulRan=T
         wScrn=  0.000000 ICntrl=     600 IOpCl=  2 I1Cent=           0 NGrid=           0
         NMat0=    1 NMatS0=     54 NMatT0=    0 NMatD0=    1 NMtDS0=    0 NMtDT0=    0
 Symmetry not used in FoFCou.

 Cycle   1  Pass 1  IDiag  1:
 E=-0.453889667447413    
 DIIS: error= 3.83D-02 at cycle   1 NSaved=   1.
 NSaved= 1 IEnMin= 1 EnMin=-0.453889667447413     IErMin= 1 ErrMin= 3.83D-02
 ErrMax= 3.83D-02  0.00D+00 EMaxC= 1.00D-01 BMatC= 6.82D-02 BMatP= 6.82D-02
 IDIUse=3 WtCom= 6.17D-01 WtEn= 3.83D-01
 Coeff-Com:  0.100D+01
 Coeff-En:   0.100D+01
 Coeff:      0.100D+01
 GapD=    2.000 DampG=2.000 DampE=0.500 DampFc=1.0000 IDamp=-1.
 RMSDP=1.77D-02 MaxDP=1.34D-01              OVMax= 0.00D+00

 Cycle   2  Pass 1  IDiag  1:
 E=-0.644655274057712     Delta-E=       -0.190765606610 Rises=F Damp=F
 DIIS: error= 1.20D-02 at cycle   2 NSaved=   2.
 NSaved= 2 IEnMin= 2 EnMin=-0.644655274057712     IErMin= 2 ErrMin= 1.20D-02
 ErrMax= 1.20D-02  0.00D+00 EMaxC= 1.00D-01 BMatC= 5.64D-03 BMatP= 6.82D-02
 IDIUse=3 WtCom= 8.80D-01 WtEn= 1.20D-01
 Coeff-Com: -0.374D+00 0.137D+01
 Coeff-En:   0.000D+00 0.100D+01
 Coeff:     -0.329D+00 0.133D+01
 RMSDP=7.34D-03 MaxDP=3.98D-02 DE=-1.91D-01 OVMax= 0.00D+00

 Cycle   3  Pass 1  IDiag  3:
 E=-0.664326561653709     Delta-E=       -0.019671287596 Rises=F Damp=F
 DIIS: error= 1.60D-03 at cycle   3 NSaved=   3.
 NSaved= 3 IEnMin= 3 EnMin=-0.664326561653709     IErMin= 3 ErrMin= 1.60D-03
 ErrMax= 1.60D-03  0.00D+00 EMaxC= 1.00D-01 BMatC= 1.21D-04 BMatP= 5.64D-03
 IDIUse=3 WtCom= 9.84D-01 WtEn= 1.60D-02
 Coeff-Com:  0.140D+00-0.595D+00 0.146D+01
 Coeff-En:   0.000D+00 0.000D+00 0.100D+01
 Coeff:      0.137D+00-0.585D+00 0.145D+01
 Gap=     0.344 Goal=   None    Shift=    0.000
 RMSDP=1.90D-03 MaxDP=1.43D-02 DE=-1.97D-02 OVMax= 1.78D-02

 Cycle   4  Pass 1  IDiag  3:
 E=-0.665165495312152     Delta-E=       -0.000838933658 Rises=F Damp=F
 DIIS: error= 6.15D-04 at cycle   4 NSaved=   4.
 NSaved= 4 IEnMin= 4 EnMin=-0.665165495312152     IErMin= 4 ErrMin= 6.15D-04
 ErrMax= 6.15D-04  0.00D+00 EMaxC= 1.00D-01 BMatC= 8.01D-06 BMatP= 1.21D-04
 IDIUse=3 WtCom= 9.94D-01 WtEn= 6.15D-03
 Coeff-Com: -0.657D-02 0.338D-01-0.294D+00 0.127D+01
 Coeff-En:   0.000D+00 0.000D+00 0.000D+00 0.100D+01
 Coeff:     -0.653D-02 0.336D-01-0.292D+00 0.127D+01
 Gap=     0.346 Goal=   None    Shift=    0.000
 RMSDP=5.89D-04 MaxDP=4.39D-03 DE=-8.39D-04 OVMax= 5.76D-03

 Cycle   5  Pass 1  IDiag  3:
 E=-0.665237188703543     Delta-E=       -0.000071693391 Rises=F Damp=F
 DIIS: error= 2.72D-04 at cycle   5 NSaved=   5.
 NSaved= 5 IEnMin= 5 EnMin=-0.665237188703543     IErMin= 5 ErrMin= 2.72D-04
 ErrMax= 2.72D-04  0.00D+00 EMaxC= 1.00D-01 BMatC= 1.05D-06 BMatP= 8.01D-06
 IDIUse=3 WtCom= 9.97D-01 WtEn= 2.72D-03
 Coeff-Com: -0.763D-02 0.300D-01 0.417D-01-0.711D+00 0.165D+01
 Coeff-En:   0.000D+00 0.000D+00 0.000D+00 0.000D+00 0.100D+01
 Coeff:     -0.761D-02 0.299D-01 0.416D-01-0.709D+00 0.165D+01
 Gap=     0.346 Goal=   None    Shift=    0.000
 RMSDP=2.81D-04 MaxDP=2.44D-03 DE=-7.17D-05 OVMax= 2.87D-03

 Cycle   6  Pass 1  IDiag  3:
 E=-0.665248506495544     Delta-E=       -0.000011317792 Rises=F Damp=F
 DIIS: error= 5.22D-05 at cycle   6 NSaved=   6.
 NSaved= 6 IEnMin= 6 EnMin=-0.665248506495544     IErMin= 6 ErrMin= 5.22D-05
 ErrMax= 5.22D-05  0.00D+00 EMaxC= 1.00D-01 BMatC= 6.46D-08 BMatP= 1.05D-06
 IDIUse=1 WtCom= 1.00D+00 WtEn= 0.00D+00
 Coeff-Com:  0.344D-02-0.138D-01-0.170D-01 0.331D+00-0.924D+00 0.162D+01
 Coeff:      0.344D-02-0.138D-01-0.170D-01 0.331D+00-0.924D+00 0.162D+01
 Gap=     0.347 Goal=   None    Shift=    0.000
 RMSDP=7.04D-05 MaxDP=5.66D-04 DE=-1.13D-05 OVMax= 7.38D-04

 Cycle   7  Pass 1  IDiag  3:
 E=-0.665249137873332     Delta-E=       -0.000000631378 Rises=F Damp=F
 DIIS: error= 5.39D-06 at cycle   7 NSaved=   7.
 NSaved= 7 IEnMin= 7 EnMin=-0.665249137873332     IErMin= 7 ErrMin= 5.39D-06
 ErrMax= 5.39D-06  0.00D+00 EMaxC= 1.00D-01 BMatC= 2.20D-09 BMatP= 6.46D-08
 IDIUse=1 WtCom= 1.00D+00 WtEn= 0.00D+00
 Coeff-Com: -0.492D-03 0.184D-02 0.449D-02-0.553D-01 0.146D+00-0.345D+00
 Coeff-Com:  0.125D+01
 Coeff:     -0.492D-03 0.184D-02 0.449D-02-0.553D-01 0.146D+00-0.345D+00
 Coeff:      0.125D+01
 Gap=     0.347 Goal=   None    Shift=    0.000
 RMSDP=9.78D-06 MaxDP=5.55D-05 DE=-6.31D-07 OVMax= 9.57D-05

 Cycle   8  Pass 1  IDiag  3:
 E=-0.665249155832996     Delta-E=       -0.000000017960 Rises=F Damp=F
 DIIS: error= 1.77D-06 at cycle   8 NSaved=   8.
 NSaved= 8 IEnMin= 8 EnMin=-0.665249155832996     IErMin= 8 ErrMin= 1.77D-06
 ErrMax= 1.77D-06  0.00D+00 EMaxC= 1.00D-01 BMatC= 2.65D-10 BMatP= 2.20D-09
 IDIUse=1 WtCom= 1.00D+00 WtEn= 0.00D+00
 Coeff-Com:  0.816D-04-0.233D-03-0.925D-03 0.606D-02-0.967D-02 0.487D-01
 Coeff-Com: -0.607D+00 0.156D+01
 Coeff:      0.816D-04-0.233D-03-0.925D-03 0.606D-02-0.967D-02 0.487D-01
 Coeff:     -0.607D+00 0.156D+01
 Gap=     0.347 Goal=   None    Shift=    0.000
 RMSDP=3.90D-06 MaxDP=2.44D-05 DE=-1.80D-08 OVMax= 3.47D-05

 Cycle   9  Pass 1  IDiag  3:
 E=-0.665249158253488     Delta-E=       -0.000000002420 Rises=F Damp=F
 DIIS: error= 5.46D-07 at cycle   9 NSaved=   9.
 NSaved= 9 IEnMin= 9 EnMin=-0.665249158253488     IErMin= 9 ErrMin= 5.46D-07
 ErrMax= 5.46D-07  0.00D+00 EMaxC= 1.00D-01 BMatC= 1.59D-11 BMatP= 2.65D-10
 IDIUse=1 WtCom= 1.00D+00 WtEn= 0.00D+00
 Coeff-Com: -0.163D-04 0.155D-04 0.343D-03-0.410D-03-0.307D-02-0.787D-02
 Coeff-Com:  0.283D+00-0.902D+00 0.163D+01
 Coeff:     -0.163D-04 0.155D-04 0.343D-03-0.410D-03-0.307D-02-0.787D-02
 Coeff:      0.283D+00-0.902D+00 0.163D+01
 Gap=     0.347 Goal=   None    Shift=    0.000
 RMSDP=1.06D-06 MaxDP=5.67D-06 DE=-2.42D-09 OVMax= 1.39D-05

 Cycle  10  Pass 1  IDiag  3:
 E=-0.665249158425510     Delta-E=       -0.000000000172 Rises=F Damp=F
 DIIS: error= 1.73D-07 at cycle  10 NSaved=  10.
 NSaved=10 IEnMin=10 EnMin=-0.665249158425510     IErMin=10 ErrMin= 1.73D-07
 ErrMax= 1.73D-07  0.00D+00 EMaxC= 1.00D-01 BMatC= 1.66D-12 BMatP= 1.59D-11
 IDIUse=1 WtCom= 1.00D+00 WtEn= 0.00D+00
 Coeff-Com: -0.108D-05 0.318D-04-0.159D-03-0.637D-03 0.420D-02-0.849D-03
 Coeff-Com: -0.145D+00 0.507D+00-0.117D+01 0.180D+01
 Coeff:     -0.108D-05 0.318D-04-0.159D-03-0.637D-03 0.420D-02-0.849D-03
 Coeff:     -0.145D+00 0.507D+00-0.117D+01 0.180D+01
 Gap=     0.347 Goal=   None    Shift=    0.000
 RMSDP=4.13D-07 MaxDP=2.41D-06 DE=-1.72D-10 OVMax= 6.04D-06

 Cycle  11  Pass 1  IDiag  3:
 E=-0.665249158446457     Delta-E=       -0.000000000021 Rises=F Damp=F
 DIIS: error= 4.25D-08 at cycle  11 NSaved=  11.
 NSaved=11 IEnMin=11 EnMin=-0.665249158446457     IErMin=11 ErrMin= 4.25D-08
 ErrMax= 4.25D-08  0.00D+00 EMaxC= 1.00D-01 BMatC= 1.14D-13 BMatP= 1.66D-12
 IDIUse=1 WtCom= 1.00D+00 WtEn= 0.00D+00
 Coeff-Com:  0.211D-05-0.199D-04 0.692D-04 0.326D-03-0.192D-02 0.918D-03
 Coeff-Com:  0.570D-01-0.205D+00 0.505D+00-0.979D+00 0.162D+01
 Coeff:      0.211D-05-0.199D-04 0.692D-04 0.326D-03-0.192D-02 0.918D-03
 Coeff:      0.570D-01-0.205D+00 0.505D+00-0.979D+00 0.162D+01
 Gap=     0.347 Goal=   None    Shift=    0.000
 RMSDP=1.06D-07 MaxDP=5.99D-07 DE=-2.09D-11 OVMax= 1.56D-06

 Cycle  12  Pass 1  IDiag  3:
 E=-0.665249158447637     Delta-E=       -0.000000000001 Rises=F Damp=F
 DIIS: error= 9.34D-09 at cycle  12 NSaved=  12.
 NSaved=12 IEnMin=12 EnMin=-0.665249158447637     IErMin=12 ErrMin= 9.34D-09
 ErrMax= 9.34D-09  0.00D+00 EMaxC= 1.00D-01 BMatC= 6.87D-15 BMatP= 1.14D-13
 IDIUse=1 WtCom= 1.00D+00 WtEn= 0.00D+00
 Coeff-Com: -0.748D-06 0.734D-05-0.268D-04-0.114D-03 0.700D-03-0.334D-03
 Coeff-Com: -0.209D-01 0.760D-01-0.191D+00 0.389D+00-0.811D+00 0.156D+01
 Coeff:     -0.748D-06 0.734D-05-0.268D-04-0.114D-03 0.700D-03-0.334D-03
 Coeff:     -0.209D-01 0.760D-01-0.191D+00 0.389D+00-0.811D+00 0.156D+01
 Gap=     0.347 Goal=   None    Shift=    0.000
 RMSDP=2.16D-08 MaxDP=1.07D-07 DE=-1.18D-12 OVMax= 2.90D-07

 Cycle  13  Pass 1  IDiag  3:
 E=-0.665249158447793     Delta-E=        0.000000000000 Rises=F Damp=F
 DIIS: error= 2.06D-09 at cycle  13 NSaved=  13.
 NSaved=13 IEnMin=13 EnMin=-0.665249158447793     IErMin=13 ErrMin= 2.06D-09
 ErrMax= 2.06D-09  0.00D+00 EMaxC= 1.00D-01 BMatC= 3.81D-16 BMatP= 6.87D-15
 IDIUse=1 WtCom= 1.00D+00 WtEn= 0.00D+00
 Coeff-Com:  0.195D-06-0.155D-05 0.445D-05 0.258D-04-0.139D-03 0.839D-04
 Coeff-Com:  0.366D-02-0.135D-01 0.344D-01-0.707D-01 0.161D+00-0.486D+00
 Coeff-Com:  0.137D+01
 Coeff:      0.195D-06-0.155D-05 0.445D-05 0.258D-04-0.139D-03 0.839D-04
 Coeff:      0.366D-02-0.135D-01 0.344D-01-0.707D-01 0.161D+00-0.486D+00
 Coeff:      0.137D+01
 Gap=     0.347 Goal=   None    Shift=    0.000
 RMSDP=4.49D-09 MaxDP=1.88D-08 DE=-1.56D-13 OVMax= 5.00D-08

 Cycle  14  Pass 2  IDiag  1:
 SCF Done:  E(RAM1) = -0.665249158448     A.U. after   14 cycles
            NFock= 13  Conv=0.45D-08     -V/T= 0.9565
 KE=-1.527980233256D+01 PE=-1.532068082592D+02 EE= 7.496442373575D+01
 Leave Link  502 at Mon Apr  4 12:35:34 2016, MaxMem=    33554432 cpu:         0.0
 (Enter /home/dustin/Applications/g09/g09/l601.exe)
 Copying SCF densities to generalized density rwf, IOpCl= 0 IROHF=0.

 **********************************************************************

            Population analysis using the SCF density.

 **********************************************************************

 Orbital symmetries:
       Occupied  (A) (A) (A) (A) (A) (A) (A) (A) (A) (A) (A) (A)
                 (A)
       Virtual   (A) (A) (A) (A) (A) (A) (A) (A) (A) (A) (A)
 The electronic state is 1-A.
 Alpha  occ. eigenvalues --   -1.49468  -1.18387  -1.00375  -0.79798  -0.75527
 Alpha  occ. eigenvalues --   -0.66765  -0.55337  -0.54673  -0.52749  -0.51471
 Alpha  occ. eigenvalues --   -0.47525  -0.38538  -0.37275
 Alpha virt. eigenvalues --   -0.02623  -0.00698   0.01104   0.03878   0.09588
 Alpha virt. eigenvalues --    0.10671   0.12867   0.13415   0.14433   0.15814
 Alpha virt. eigenvalues --    0.16332
          Condensed to atoms (all electrons):
               1          2          3          4          5          6
     1  C    4.161436   0.000000   0.000000   0.000000   0.000000   0.000000
     2  C    0.000000   4.015816   0.000000   0.000000   0.000000   0.000000
     3  C    0.000000   0.000000   4.006310   0.000000   0.000000   0.000000
     4  C    0.000000   0.000000   0.000000   4.163936   0.000000   0.000000
     5  H    0.000000   0.000000   0.000000   0.000000   0.902507   0.000000
     6  H    0.000000   0.000000   0.000000   0.000000   0.000000   0.917638
     7  H    0.000000   0.000000   0.000000   0.000000   0.000000   0.000000
     8  H    0.000000   0.000000   0.000000   0.000000   0.000000   0.000000
     9  S    0.000000   0.000000   0.000000   0.000000   0.000000   0.000000
               7          8          9
     1  C    0.000000   0.000000   0.000000
     2  C    0.000000   0.000000   0.000000
     3  C    0.000000   0.000000   0.000000
     4  C    0.000000   0.000000   0.000000
     5  H    0.000000   0.000000   0.000000
     6  H    0.000000   0.000000   0.000000
     7  H    0.911323   0.000000   0.000000
     8  H    0.000000   0.906755   0.000000
     9  S    0.000000   0.000000   6.014280
 Mulliken charges:
               1
     1  C   -0.161436
     2  C   -0.015816
     3  C   -0.006310
     4  C   -0.163936
     5  H    0.097493
     6  H    0.082362
     7  H    0.088677
     8  H    0.093245
     9  S   -0.014280
 Sum of Mulliken charges =   0.00000
 Mulliken charges with hydrogens summed into heavy atoms:
               1
     1  C   -0.068191
     2  C    0.072861
     3  C    0.076052
     4  C   -0.066443
     9  S   -0.014280
 Charge=              0.0000 electrons
 Dipole moment (field-independent basis, Debye):
    X=             -0.7719    Y=             -0.0096    Z=              0.0934  Tot=              0.7776
 N-N= 9.285693769753D+01 E-N=-1.532068082778D+02  KE=-1.527980233256D+01
 Leave Link  601 at Mon Apr  4 12:35:34 2016, MaxMem=    33554432 cpu:         0.0
 (Enter /home/dustin/Applications/g09/g09/l701.exe)
 Compute integral first derivatives.
 ... and contract with generalized density number  0.
 Leave Link  701 at Mon Apr  4 12:35:34 2016, MaxMem=    33554432 cpu:         0.0
 (Enter /home/dustin/Applications/g09/g09/l702.exe)
 L702 exits ... SP integral derivatives will be done elsewhere.
 Leave Link  702 at Mon Apr  4 12:35:34 2016, MaxMem=    33554432 cpu:         0.0
 (Enter /home/dustin/Applications/g09/g09/l703.exe)
 Compute integral first derivatives, UseDBF=F ICtDFT=           0.
 Integral derivatives from FoFJK, PRISM(SPDF).
 Calling FoFJK, ICntrl=      2127 FMM=F ISym2X=0 I1Cent= 0 IOpClX= 0 NMat=1 NMatS=1 NMatT=0.
 FoFJK:  IHMeth= 8 ICntrl=    2127 DoSepK=F KAlg= 0 I1Cent=   0 FoldK=F
 IRaf=         0 NMat=   1 IRICut=       1 DoRegI=T DoRafI=F ISym2E= 0.
 FoFCou: FMM=F IPFlag=           0 FMFlag=      100000 FMFlg1=         800
         NFxFlg=           0 DoJE=F BraDBF=F KetDBF=F FulRan=T
         wScrn=  0.000000 ICntrl=    2127 IOpCl=  0 I1Cent=           0 NGrid=           0
         NMat0=    1 NMatS0=      1 NMatT0=    0 NMatD0=    1 NMtDS0=    0 NMtDT0=    0
 Symmetry not used in FoFCou.
 Leave Link  703 at Mon Apr  4 12:35:34 2016, MaxMem=    33554432 cpu:         0.0
 (Enter /home/dustin/Applications/g09/g09/l716.exe)
 Dipole        =-3.03687348D-01-3.78455062D-03 3.67362187D-02
 ***** Axes restored to original set *****
 -------------------------------------------------------------------
 Center     Atomic                   Forces (Hartrees/Bohr)
 Number     Number              X              Y              Z
 -------------------------------------------------------------------
      1        6          -0.106251896   -0.033194886   -0.020033697
      2        6           0.063276492    0.029739291    0.010982735
      3        6          -0.015849651    0.001485073   -0.014906738
      4        6           0.024868988    0.026199372    0.009262126
      5        1           0.005418901    0.002662831    0.003636123
      6        1          -0.016183069    0.025727782    0.000388408
      7        1          -0.019309042   -0.011676200   -0.005955177
      8        1           0.042528171   -0.026751209    0.002039739
      9       16           0.021501105   -0.014192054    0.014586481
 -------------------------------------------------------------------
 Cartesian Forces:  Max     0.106251896 RMS     0.030179186
 Leave Link  716 at Mon Apr  4 12:35:34 2016, MaxMem=    33554432 cpu:         0.0
 (Enter /home/dustin/Applications/g09/g09/l103.exe)

 GradGradGradGradGradGradGradGradGradGradGradGradGradGradGradGradGradGrad
 Berny optimization.
 FormGI is forming the generalized inverse of G from B-inverse, IUseBI=4.
 Internal  Forces:  Max     0.052646783 RMS     0.017977560
 Search for a local minimum.
 Step number   1 out of a maximum of   48
 All quantities printed in internal units (Hartrees-Bohrs-Radians)
 RMS Force = .17978D-01 SwitMx=.10000D-02 MixMth= 1
 Mixed Optimization -- RFO/linear search
 Second derivative matrix not updated -- first step.
 ITU=  0
     Eigenvalues ---    0.00997   0.01206   0.01811   0.01899   0.02126
     Eigenvalues ---    0.02339   0.15517   0.15755   0.15861   0.15976
     Eigenvalues ---    0.21836   0.22436   0.24477   0.26003   0.33142
     Eigenvalues ---    0.36380   0.37581   0.38416   0.41233   0.43083
     Eigenvalues ---    0.50653
 RFO step:  Lambda=-3.82546262D-02 EMin= 9.97028718D-03
 Linear search not attempted -- first point.
 Maximum step size (   0.300) exceeded in Quadratic search.
    -- Step size scaled by   0.998
 Iteration  1 RMS(Cart)=  0.07599290 RMS(Int)=  0.00526070
 Iteration  2 RMS(Cart)=  0.00491314 RMS(Int)=  0.00291645
 Iteration  3 RMS(Cart)=  0.00001467 RMS(Int)=  0.00291642
 Iteration  4 RMS(Cart)=  0.00000004 RMS(Int)=  0.00291642
 ITry= 1 IFail=0 DXMaxC= 2.10D-01 DCOld= 1.00D+10 DXMaxT= 3.00D-01 DXLimC= 3.00D+00 Rises=F
 Variable       Old X    -DE/DX   Delta X   Delta X   Delta X     New X
                                 (Linear)    (Quad)   (Total)
    R1        2.72920  -0.05265   0.00000  -0.12925  -0.12942   2.59978
    R2        2.65880   0.04911   0.00000   0.10426   0.10405   2.76286
    R3        1.96611   0.04973   0.00000   0.11017   0.11017   2.07628
    R4        2.03492   0.01310   0.00000   0.03253   0.03253   2.06745
    R5        3.43694  -0.01159   0.00000  -0.05227  -0.05212   3.38482
    R6        2.57068   0.02519   0.00000   0.05052   0.05028   2.62095
    R7        2.00465   0.02822   0.00000   0.06669   0.06669   2.07134
    R8        3.39639  -0.00707   0.00000  -0.01697  -0.01662   3.37977
    R9        2.08803   0.00577   0.00000   0.01558   0.01558   2.10361
    A1        1.92926   0.01031   0.00000   0.04456   0.04143   1.97069
    A2        2.10571  -0.00083   0.00000   0.00643   0.00683   2.11253
    A3        2.23017  -0.00860   0.00000  -0.03547  -0.03586   2.19431
    A4        2.07925   0.01832   0.00000   0.10280   0.10362   2.18286
    A5        1.95506   0.00016   0.00000  -0.01415  -0.01629   1.93876
    A6        2.23280  -0.01801   0.00000  -0.08302  -0.08243   2.15037
    A7        2.17446   0.02166   0.00000   0.08884   0.08743   2.26189
    A8        1.97389  -0.02083   0.00000  -0.05127  -0.05592   1.91798
    A9        2.12678   0.00012   0.00000  -0.02196  -0.02348   2.10330
   A10        2.00662  -0.00909   0.00000  -0.00962  -0.01287   1.99376
   A11        2.14559   0.00409   0.00000   0.00329   0.00395   2.14954
   A12        2.12956   0.00520   0.00000   0.00973   0.01028   2.13983
   A13        1.52783   0.02162   0.00000   0.07428   0.07252   1.60036
    D1       -2.97997  -0.00039   0.00000  -0.02492  -0.02331  -3.00328
    D2       -0.01504   0.00002   0.00000  -0.00448  -0.00312  -0.01816
    D3        0.34944  -0.00407   0.00000  -0.10070  -0.10332   0.24612
    D4       -2.96881  -0.00365   0.00000  -0.08025  -0.08313  -3.05194
    D5        0.17886  -0.00546   0.00000  -0.10821  -0.11175   0.06711
    D6       -3.01878  -0.00128   0.00000  -0.04043  -0.04529  -3.06407
    D7        3.11579  -0.00016   0.00000  -0.01896  -0.02089   3.09490
    D8       -0.08185   0.00401   0.00000   0.04883   0.04556  -0.03629
    D9       -0.10325   0.00209   0.00000   0.07684   0.07980  -0.02345
   D10        2.84247   0.00736   0.00000   0.12377   0.12264   2.96511
   D11        3.01006   0.00536   0.00000   0.06260   0.05760   3.06766
   D12       -0.07605   0.00126   0.00000  -0.00428  -0.00822  -0.08427
   D13       -0.26593   0.01287   0.00000   0.18901   0.18370  -0.08223
   D14        2.93114   0.00877   0.00000   0.12213   0.11788   3.04902
   D15        0.20585  -0.00736   0.00000  -0.14521  -0.14574   0.06011
   D16       -3.06598   0.00187   0.00000  -0.01294  -0.02292  -3.08890
         Item               Value     Threshold  Converged?
 Maximum Force            0.052647     0.000450     NO 
 RMS     Force            0.017978     0.000300     NO 
 Maximum Displacement     0.210319     0.001800     NO 
 RMS     Displacement     0.075641     0.001200     NO 
 Predicted change in Energy=-2.325325D-02
 Lowest energy point so far.  Saving SCF results.
 GradGradGradGradGradGradGradGradGradGradGradGradGradGradGradGradGradGrad

 Leave Link  103 at Mon Apr  4 12:35:34 2016, MaxMem=    33554432 cpu:         0.0
 (Enter /home/dustin/Applications/g09/g09/l202.exe)
                          Input orientation:                          
 ---------------------------------------------------------------------
 Center     Atomic      Atomic             Coordinates (Angstroms)
 Number     Number       Type             X           Y           Z
 ---------------------------------------------------------------------
      1          6           0        0.894009   -0.701456   -0.005869
      2          6           0       -0.371804   -1.237821   -0.057873
      3          6           0       -0.372407    1.327615    0.064254
      4          6           0        0.892321    0.760432    0.015310
      5          1           0        1.822671    1.370903   -0.015545
      6          1           0       -0.662797    2.380967    0.151257
      7          1           0       -0.608468   -2.301290    0.041955
      8          1           0        1.783949   -1.340877   -0.085442
      9         16           0       -1.617621    0.049109   -0.052327
 ---------------------------------------------------------------------
                    Distance matrix (angstroms):
                    1          2          3          4          5
     1  C    0.000000
     2  C    1.375745   0.000000
     3  C    2.392876   2.568342   0.000000
     4  C    1.462042   2.365667   1.386950   0.000000
     5  H    2.270943   3.409246   2.196955   1.113185   0.000000
     6  H    3.456829   3.636487   1.096105   2.250113   2.688049
     7  H    2.195266   1.094048   3.636644   3.409871   4.404401
     8  H    1.098719   2.158390   3.434113   2.284874   2.712957
     9  S    2.621792   1.791168   1.788499   2.609667   3.685662
                    6          7          8          9
     6  H    0.000000
     7  H    4.683848   0.000000
     8  H    4.460349   2.581139   0.000000
     9  S    2.527983   2.559621   3.674757   0.000000
 Stoichiometry    C4H4S
 Framework group  C1[X(C4H4S)]
 Deg. of freedom    21
 Full point group                 C1      NOp   1
 RotChk:  IX=3 Diff= 5.70D-02
 Largest Abelian subgroup         C1      NOp   1
 Largest concise Abelian subgroup C1      NOp   1
                         Standard orientation:                         
 ---------------------------------------------------------------------
 Center     Atomic      Atomic             Coordinates (Angstroms)
 Number     Number       Type             X           Y           Z
 ---------------------------------------------------------------------
      1          6           0       -1.315775    0.689804    0.013813
      2          6           0       -0.071876    1.277341    0.000079
      3          6           0        0.029864   -1.288749    0.034875
      4          6           0       -1.255758   -0.770728   -0.014718
      5          1           0       -2.160333   -1.416120   -0.081007
      6          1           0        0.360984   -2.332158    0.090576
      7          1           0        0.120477    2.345253    0.139745
      8          1           0       -2.229406    1.295860   -0.058010
      9         16           0        1.224347    0.041322   -0.018475
 ---------------------------------------------------------------------
 Rotational constants (GHZ):      7.5202021      5.1858487      3.0717836
 Leave Link  202 at Mon Apr  4 12:35:34 2016, MaxMem=    33554432 cpu:         0.0
 (Enter /home/dustin/Applications/g09/g09/l301.exe)

 Semi-emprical parameters in input format:
 Method=8 CoreType=1 PeptideFC=0.0115813645 RIJScale=0.5291772086
 ****
 H       
 PQN=1 NValence=1 F0ss=0.4305859188 ZetaOverlap=1.2049882087 U=-0.4189691428
 Beta=-0.2161095214 CoreKO=1.0488708569 KON=0,0,0,1.0171631126 KON=1,0,1,1.0589197790
 KON=0,1,1,1.0589197790 KON=2,1,1,1.0589197790 EISol=-0.4188110042 EHeat=0.0830298228
 Alpha=1.5252601686
 GCore=0.0085277107,1.4001425905,2.2633912063
 GCore=0.0003382177,1.4294003553,3.5354159128
 GCore=-0.0013139269,0.5600570362,3.9684248791
 ****
 C       
 PQN=2,2 NValence=4 F0ss=0.4478367758 F0sp=0.4215147623 F0pp=0.3759224541 F2pp=0.1801054510
 G1sp=0.2613968729
 ZetaOverlap=1.8226714975,1.5637296242
 U=-1.9663092920,-1.4679628191
 Beta=-0.6190518029,-0.2836784428 DDN=0,1,0.8458762323 DDN=1,1,0.7060741323
 CoreKO=1.0449172975 KON=0,0,0,1.1124284736 KON=1,0,1,0.8484813696 KON=0,1,1,1.1399886655
 KON=2,1,1,0.7783928119 EISol=-4.4398989268 EHeat=0.2723305520 Alpha=1.4014062429
 DipHyp=1.6916551366
 GCore=0.0007885612,1.4052753055,3.5013577594
 GCore=0.0033292985,1.4001425905,3.4959933458
 GCore=-0.0013196868,1.4211052049,3.9077570272
 GCore=-0.0000892872,1.3774926461,5.0077742521
 ****
 S       
 PQN=3,3 NValence=6 F0ss=0.4331396397 F0sp=0.3188254963 F0pp=0.3136271218 F2pp=0.3456917167
 G1sp=0.2791629797
 ZetaOverlap=2.2928078760,1.7303847570,0.9805994118
 U=-2.1542460346,-1.7903186861
 Beta=-0.1472236126,-0.2905136336 DDN=0,1,0.8980720022 DDN=1,1,1.0036329000
 CoreKO=1.2938683185 KON=0,0,0,1.0797469645 KON=1,0,1,0.8675650550 KON=0,1,1,1.1543033468
 KON=2,1,1,0.8057671925 EISol=-7.0460287497 EHeat=0.1058151363 Alpha=1.2170196144
 DipHyp=1.7960406707
 GCore=-0.0317270650,1.2863644833,1.5491231084
 GCore=-0.0008238398,1.6425719595,2.9558459823
 GCore=0.0008565489,3.7964407093,3.8030664189
 ****
 
 Standard basis: VSTO-6G (5D, 7F)
 Ernie: Thresh=  0.10000D-02 Tol=  0.10000D-05 Strict=F.
  NNHCO=     0 NNPyr=     0 NCTC=     0               EPep=         0.000000000
    EC=        62.887186321  ECS=         1.592006128   EG=         0.145626182
   EHC=         0.000000000  EAt=       -26.480868474  AtH=         1.527256636
 EPDDG=         0.000000000  ECC=        64.624818632 EAtT=        28.008125109
 There are    24 symmetry adapted cartesian basis functions of A   symmetry.
 There are    24 symmetry adapted basis functions of A   symmetry.
    24 basis functions,   144 primitive gaussians,    24 cartesian basis functions
    13 alpha electrons       13 beta electrons
       nuclear repulsion energy        92.6329437412 Hartrees.
 IExCor=    0 DFT=F Ex=HF Corr=None ExCW=0 ScaHFX=  1.000000
 ScaDFX=  1.000000  1.000000  1.000000  1.000000 ScalE2=  1.000000  1.000000
 IRadAn=      0 IRanWt=     -1 IRanGd=            0 ICorTp=0 IEmpDi=  4
 Integral buffers will be    131072 words long.
 Regular integral format.
 Two-electron integral symmetry is turned off.
 Leave Link  301 at Mon Apr  4 12:35:34 2016, MaxMem=    33554432 cpu:         0.0
 (Enter /home/dustin/Applications/g09/g09/l302.exe)
 Do NDO integrals.
 NPDir=0 NMtPBC=     1 NCelOv=     1 NCel=       1 NClECP=     1 NCelD=      1
         NCelK=      1 NCelE2=     1 NClLst=     1 CellRange=     0.0.
 One-electron integrals computed using PRISM.
 NBasis=    24 RedAO= F EigKep=  0.00D+00  NBF=    24
 NBsUse=    24 1.00D-04 EigRej=  0.00D+00 NBFU=    24
 Leave Link  302 at Mon Apr  4 12:35:35 2016, MaxMem=    33554432 cpu:         0.0
 (Enter /home/dustin/Applications/g09/g09/l303.exe)
 DipDrv:  MaxL=1.
 Leave Link  303 at Mon Apr  4 12:35:35 2016, MaxMem=    33554432 cpu:         0.0
 (Enter /home/dustin/Applications/g09/g09/l401.exe)
 Initial guess from the checkpoint file:  "best.chk"
 B after Tr=     0.000000    0.000000    0.000000
         Rot=    0.999985   -0.000728   -0.001437   -0.005262 Ang=  -0.63 deg.
 Guess basis will be translated and rotated to current coordinates.
 JPrj=0 DoOrth=T DoCkMO=T.
 Leave Link  401 at Mon Apr  4 12:35:35 2016, MaxMem=    33554432 cpu:         0.0
 (Enter /home/dustin/Applications/g09/g09/l502.exe)
 Closed shell SCF:
 Using DIIS extrapolation, IDIIS=  1040.
 Overlap will be assumed to be unity.
 Two-electron integral symmetry not used.
 Keep J ints in memory in canonical form, NReq=888082.
 IVT=       79475 IEndB=       79475 NGot=    33554432 MDV=    33473473
 LenX=    33473473 LenY=    33472456
 Requested convergence on RMS density matrix=1.00D-08 within 128 cycles.
 Requested convergence on MAX density matrix=1.00D-06.
 Requested convergence on             energy=1.00D-06.
 No special actions if energy rises.
 FoFCou: FMM=F IPFlag=           0 FMFlag=           0 FMFlg1=           0
         NFxFlg=           0 DoJE=F BraDBF=F KetDBF=F FulRan=T
         wScrn=  0.000000 ICntrl=     600 IOpCl=  2 I1Cent=           0 NGrid=           0
         NMat0=    1 NMatS0=     54 NMatT0=    0 NMatD0=    1 NMtDS0=    0 NMtDT0=    0
 Symmetry not used in FoFCou.

 Cycle   1  Pass 1  IDiag  1:
 E=-0.671011049535011    
 DIIS: error= 8.79D-03 at cycle   1 NSaved=   1.
 NSaved= 1 IEnMin= 1 EnMin=-0.671011049535011     IErMin= 1 ErrMin= 8.79D-03
 ErrMax= 8.79D-03  0.00D+00 EMaxC= 1.00D-01 BMatC= 3.57D-03 BMatP= 3.57D-03
 IDIUse=3 WtCom= 9.12D-01 WtEn= 8.79D-02
 Coeff-Com:  0.100D+01
 Coeff-En:   0.100D+01
 Coeff:      0.100D+01
 GapD=    2.000 DampG=2.000 DampE=1.000 DampFc=2.0000 IDamp=-1.
 RMSDP=4.55D-03 MaxDP=2.59D-02              OVMax= 0.00D+00

 Cycle   2  Pass 1  IDiag  3:
 E=-0.682790915007800     Delta-E=       -0.011779865473 Rises=F Damp=F
 DIIS: error= 3.96D-03 at cycle   2 NSaved=   2.
 NSaved= 2 IEnMin= 2 EnMin=-0.682790915007800     IErMin= 2 ErrMin= 3.96D-03
 ErrMax= 3.96D-03  0.00D+00 EMaxC= 1.00D-01 BMatC= 4.66D-04 BMatP= 3.57D-03
 IDIUse=3 WtCom= 9.60D-01 WtEn= 3.96D-02
 Coeff-Com: -0.451D+00 0.145D+01
 Coeff-En:   0.000D+00 0.100D+01
 Coeff:     -0.433D+00 0.143D+01
 Gap=     0.363 Goal=   None    Shift=    0.000
 RMSDP=2.96D-03 MaxDP=1.82D-02 DE=-1.18D-02 OVMax= 1.65D-02

 Cycle   3  Pass 1  IDiag  3:
 E=-0.685337262122530     Delta-E=       -0.002546347115 Rises=F Damp=F
 DIIS: error= 1.03D-03 at cycle   3 NSaved=   3.
 NSaved= 3 IEnMin= 3 EnMin=-0.685337262122530     IErMin= 3 ErrMin= 1.03D-03
 ErrMax= 1.03D-03  0.00D+00 EMaxC= 1.00D-01 BMatC= 2.95D-05 BMatP= 4.66D-04
 IDIUse=3 WtCom= 9.90D-01 WtEn= 1.03D-02
 Coeff-Com:  0.241D+00-0.933D+00 0.169D+01
 Coeff-En:   0.000D+00 0.000D+00 0.100D+01
 Coeff:      0.239D+00-0.923D+00 0.168D+01
 Gap=     0.364 Goal=   None    Shift=    0.000
 RMSDP=1.18D-03 MaxDP=6.85D-03 DE=-2.55D-03 OVMax= 8.44D-03

 Cycle   4  Pass 1  IDiag  3:
 E=-0.685577571677214     Delta-E=       -0.000240309555 Rises=F Damp=F
 DIIS: error= 1.43D-04 at cycle   4 NSaved=   4.
 NSaved= 4 IEnMin= 4 EnMin=-0.685577571677214     IErMin= 4 ErrMin= 1.43D-04
 ErrMax= 1.43D-04  0.00D+00 EMaxC= 1.00D-01 BMatC= 1.05D-06 BMatP= 2.95D-05
 IDIUse=3 WtCom= 9.99D-01 WtEn= 1.43D-03
 Coeff-Com: -0.104D+00 0.415D+00-0.863D+00 0.155D+01
 Coeff-En:   0.000D+00 0.000D+00 0.000D+00 0.100D+01
 Coeff:     -0.103D+00 0.414D+00-0.861D+00 0.155D+01
 Gap=     0.365 Goal=   None    Shift=    0.000
 RMSDP=2.34D-04 MaxDP=1.12D-03 DE=-2.40D-04 OVMax= 2.00D-03

 Cycle   5  Pass 1  IDiag  3:
 E=-0.685586899677048     Delta-E=       -0.000009328000 Rises=F Damp=F
 DIIS: error= 3.54D-05 at cycle   5 NSaved=   5.
 NSaved= 5 IEnMin= 5 EnMin=-0.685586899677048     IErMin= 5 ErrMin= 3.54D-05
 ErrMax= 3.54D-05  0.00D+00 EMaxC= 1.00D-01 BMatC= 6.53D-08 BMatP= 1.05D-06
 IDIUse=1 WtCom= 1.00D+00 WtEn= 0.00D+00
 Coeff-Com:  0.167D-01-0.688D-01 0.159D+00-0.493D+00 0.139D+01
 Coeff:      0.167D-01-0.688D-01 0.159D+00-0.493D+00 0.139D+01
 Gap=     0.365 Goal=   None    Shift=    0.000
 RMSDP=5.90D-05 MaxDP=3.01D-04 DE=-9.33D-06 OVMax= 5.86D-04

 Cycle   6  Pass 1  IDiag  3:
 E=-0.685587493439286     Delta-E=       -0.000000593762 Rises=F Damp=F
 DIIS: error= 7.62D-06 at cycle   6 NSaved=   6.
 NSaved= 6 IEnMin= 6 EnMin=-0.685587493439286     IErMin= 6 ErrMin= 7.62D-06
 ErrMax= 7.62D-06  0.00D+00 EMaxC= 1.00D-01 BMatC= 4.90D-09 BMatP= 6.53D-08
 IDIUse=1 WtCom= 1.00D+00 WtEn= 0.00D+00
 Coeff-Com:  0.776D-03-0.216D-02-0.171D-02 0.840D-01-0.571D+00 0.149D+01
 Coeff:      0.776D-03-0.216D-02-0.171D-02 0.840D-01-0.571D+00 0.149D+01
 Gap=     0.365 Goal=   None    Shift=    0.000
 RMSDP=1.69D-05 MaxDP=8.15D-05 DE=-5.94D-07 OVMax= 1.78D-04

 Cycle   7  Pass 1  IDiag  3:
 E=-0.685587535668446     Delta-E=       -0.000000042229 Rises=F Damp=F
 DIIS: error= 1.77D-06 at cycle   7 NSaved=   7.
 NSaved= 7 IEnMin= 7 EnMin=-0.685587535668446     IErMin= 7 ErrMin= 1.77D-06
 ErrMax= 1.77D-06  0.00D+00 EMaxC= 1.00D-01 BMatC= 1.81D-10 BMatP= 4.90D-09
 IDIUse=1 WtCom= 1.00D+00 WtEn= 0.00D+00
 Coeff-Com: -0.123D-02 0.451D-02-0.697D-02-0.186D-01 0.217D+00-0.702D+00
 Coeff-Com:  0.151D+01
 Coeff:     -0.123D-02 0.451D-02-0.697D-02-0.186D-01 0.217D+00-0.702D+00
 Coeff:      0.151D+01
 Gap=     0.365 Goal=   None    Shift=    0.000
 RMSDP=2.86D-06 MaxDP=1.28D-05 DE=-4.22D-08 OVMax= 2.85D-05

 Cycle   8  Pass 1  IDiag  3:
 E=-0.685587537125016     Delta-E=       -0.000000001457 Rises=F Damp=F
 DIIS: error= 4.34D-07 at cycle   8 NSaved=   8.
 NSaved= 8 IEnMin= 8 EnMin=-0.685587537125016     IErMin= 8 ErrMin= 4.34D-07
 ErrMax= 4.34D-07  0.00D+00 EMaxC= 1.00D-01 BMatC= 1.03D-11 BMatP= 1.81D-10
 IDIUse=1 WtCom= 1.00D+00 WtEn= 0.00D+00
 Coeff-Com:  0.586D-03-0.220D-02 0.373D-02 0.461D-02-0.784D-01 0.271D+00
 Coeff-Com: -0.732D+00 0.153D+01
 Coeff:      0.586D-03-0.220D-02 0.373D-02 0.461D-02-0.784D-01 0.271D+00
 Coeff:     -0.732D+00 0.153D+01
 Gap=     0.365 Goal=   None    Shift=    0.000
 RMSDP=7.39D-07 MaxDP=3.58D-06 DE=-1.46D-09 OVMax= 6.22D-06

 Cycle   9  Pass 1  IDiag  3:
 E=-0.685587537216478     Delta-E=       -0.000000000091 Rises=F Damp=F
 DIIS: error= 1.13D-07 at cycle   9 NSaved=   9.
 NSaved= 9 IEnMin= 9 EnMin=-0.685587537216478     IErMin= 9 ErrMin= 1.13D-07
 ErrMax= 1.13D-07  0.00D+00 EMaxC= 1.00D-01 BMatC= 6.72D-13 BMatP= 1.03D-11
 IDIUse=1 WtCom= 1.00D+00 WtEn= 0.00D+00
 Coeff-Com: -0.229D-03 0.866D-03-0.149D-02-0.146D-02 0.286D-01-0.100D+00
 Coeff-Com:  0.288D+00-0.773D+00 0.156D+01
 Coeff:     -0.229D-03 0.866D-03-0.149D-02-0.146D-02 0.286D-01-0.100D+00
 Coeff:      0.288D+00-0.773D+00 0.156D+01
 Gap=     0.365 Goal=   None    Shift=    0.000
 RMSDP=2.03D-07 MaxDP=9.74D-07 DE=-9.15D-11 OVMax= 2.26D-06

 Cycle  10  Pass 1  IDiag  3:
 E=-0.685587537223441     Delta-E=       -0.000000000007 Rises=F Damp=F
 DIIS: error= 3.05D-08 at cycle  10 NSaved=  10.
 NSaved=10 IEnMin=10 EnMin=-0.685587537223441     IErMin=10 ErrMin= 3.05D-08
 ErrMax= 3.05D-08  0.00D+00 EMaxC= 1.00D-01 BMatC= 5.10D-14 BMatP= 6.72D-13
 IDIUse=1 WtCom= 1.00D+00 WtEn= 0.00D+00
 Coeff-Com:  0.620D-04-0.236D-03 0.419D-03 0.214D-03-0.658D-02 0.237D-01
 Coeff-Com: -0.732D-01 0.229D+00-0.695D+00 0.152D+01
 Coeff:      0.620D-04-0.236D-03 0.419D-03 0.214D-03-0.658D-02 0.237D-01
 Coeff:     -0.732D-01 0.229D+00-0.695D+00 0.152D+01
 Gap=     0.365 Goal=   None    Shift=    0.000
 RMSDP=6.03D-08 MaxDP=3.50D-07 DE=-6.96D-12 OVMax= 8.13D-07

 Cycle  11  Pass 1  IDiag  3:
 E=-0.685587537223739     Delta-E=        0.000000000000 Rises=F Damp=F
 DIIS: error= 8.23D-09 at cycle  11 NSaved=  11.
 NSaved=11 IEnMin=11 EnMin=-0.685587537223739     IErMin=11 ErrMin= 8.23D-09
 ErrMax= 8.23D-09  0.00D+00 EMaxC= 1.00D-01 BMatC= 4.29D-15 BMatP= 5.10D-14
 IDIUse=1 WtCom= 1.00D+00 WtEn= 0.00D+00
 Coeff-Com: -0.835D-05 0.326D-04-0.625D-04 0.417D-04 0.439D-03-0.190D-02
 Coeff-Com:  0.809D-02-0.359D-01 0.173D+00-0.659D+00 0.152D+01
 Coeff:     -0.835D-05 0.326D-04-0.625D-04 0.417D-04 0.439D-03-0.190D-02
 Coeff:      0.809D-02-0.359D-01 0.173D+00-0.659D+00 0.152D+01
 Gap=     0.365 Goal=   None    Shift=    0.000
 RMSDP=1.76D-08 MaxDP=1.13D-07 DE=-2.98D-13 OVMax= 2.56D-07

 Cycle  12  Pass 1  IDiag  3:
 E=-0.685587537223711     Delta-E=        0.000000000000 Rises=F Damp=F
 DIIS: error= 2.67D-09 at cycle  12 NSaved=  12.
 NSaved=12 IEnMin=11 EnMin=-0.685587537223739     IErMin=12 ErrMin= 2.67D-09
 ErrMax= 2.67D-09  0.00D+00 EMaxC= 1.00D-01 BMatC= 3.64D-16 BMatP= 4.29D-15
 IDIUse=1 WtCom= 1.00D+00 WtEn= 0.00D+00
 Coeff-Com:  0.681D-06-0.302D-05 0.758D-05-0.307D-04 0.135D-03-0.340D-03
 Coeff-Com:  0.993D-04 0.352D-02-0.346D-01 0.194D+00-0.698D+00 0.154D+01
 Coeff:      0.681D-06-0.302D-05 0.758D-05-0.307D-04 0.135D-03-0.340D-03
 Coeff:      0.993D-04 0.352D-02-0.346D-01 0.194D+00-0.698D+00 0.154D+01
 Gap=     0.365 Goal=   None    Shift=    0.000
 RMSDP=5.18D-09 MaxDP=2.73D-08 DE= 2.84D-14 OVMax= 7.37D-08

 Cycle  13  Pass 2  IDiag  1:
 SCF Done:  E(RAM1) = -0.685587537224     A.U. after   13 cycles
            NFock= 12  Conv=0.52D-08     -V/T= 0.9550
 KE=-1.523510250913D+01 PE=-1.529099982949D+02 EE= 7.482656952558D+01
 Leave Link  502 at Mon Apr  4 12:35:35 2016, MaxMem=    33554432 cpu:         0.0
 (Enter /home/dustin/Applications/g09/g09/l701.exe)
 Compute integral first derivatives.
 ... and contract with generalized density number  0.
 Leave Link  701 at Mon Apr  4 12:35:35 2016, MaxMem=    33554432 cpu:         0.0
 (Enter /home/dustin/Applications/g09/g09/l702.exe)
 L702 exits ... SP integral derivatives will be done elsewhere.
 Leave Link  702 at Mon Apr  4 12:35:35 2016, MaxMem=    33554432 cpu:         0.0
 (Enter /home/dustin/Applications/g09/g09/l703.exe)
 Compute integral first derivatives, UseDBF=F ICtDFT=           0.
 Integral derivatives from FoFJK, PRISM(SPDF).
 Calling FoFJK, ICntrl=      2127 FMM=F ISym2X=0 I1Cent= 0 IOpClX= 0 NMat=1 NMatS=1 NMatT=0.
 FoFJK:  IHMeth= 8 ICntrl=    2127 DoSepK=F KAlg= 0 I1Cent=   0 FoldK=F
 IRaf=         0 NMat=   1 IRICut=       1 DoRegI=T DoRafI=F ISym2E= 0.
 FoFCou: FMM=F IPFlag=           0 FMFlag=      100000 FMFlg1=         800
         NFxFlg=           0 DoJE=F BraDBF=F KetDBF=F FulRan=T
         wScrn=  0.000000 ICntrl=    2127 IOpCl=  0 I1Cent=           0 NGrid=           0
         NMat0=    1 NMatS0=      1 NMatT0=    0 NMatD0=    1 NMtDS0=    0 NMtDT0=    0
 Symmetry not used in FoFCou.
 Leave Link  703 at Mon Apr  4 12:35:35 2016, MaxMem=    33554432 cpu:         0.0
 (Enter /home/dustin/Applications/g09/g09/l716.exe)
 Dipole        =-3.81329639D-01-3.12566048D-02 2.71143401D-02
 ***** Axes restored to original set *****
 -------------------------------------------------------------------
 Center     Atomic                   Forces (Hartrees/Bohr)
 Number     Number              X              Y              Z
 -------------------------------------------------------------------
      1        6          -0.009682874    0.016922886   -0.009893254
      2        6           0.007869652    0.000513731    0.009358145
      3        6           0.021219733   -0.011085723   -0.003388342
      4        6          -0.005839762    0.001136406    0.001824878
      5        1          -0.001904408   -0.004129629    0.002413544
      6        1          -0.003706065   -0.002364302   -0.002127319
      7        1          -0.011001782   -0.000007915   -0.005539778
      8        1           0.008806527    0.002015033    0.003403969
      9       16          -0.005761022   -0.003000487    0.003948157
 -------------------------------------------------------------------
 Cartesian Forces:  Max     0.021219733 RMS     0.007708176
 Leave Link  716 at Mon Apr  4 12:35:35 2016, MaxMem=    33554432 cpu:         0.0
 (Enter /home/dustin/Applications/g09/g09/l103.exe)

 GradGradGradGradGradGradGradGradGradGradGradGradGradGradGradGradGradGrad
 Berny optimization.
 Using GEDIIS/GDIIS optimizer.
 FormGI is forming the generalized inverse of G from B-inverse, IUseBI=4.
 Internal  Forces:  Max     0.015218560 RMS     0.005429541
 Search for a local minimum.
 Step number   2 out of a maximum of   48
 All quantities printed in internal units (Hartrees-Bohrs-Radians)
 RMS Force = .54295D-02 SwitMx=.10000D-02 MixMth= 1
 Mixed Optimization -- RFO/linear search
 Update second derivatives using D2CorX and points    1    2
 DE= -2.03D-02 DEPred=-2.33D-02 R= 8.75D-01
 TightC=F SS=  1.41D+00  RLast= 4.67D-01 DXNew= 5.0454D-01 1.4010D+00
 Trust test= 8.75D-01 RLast= 4.67D-01 DXMaxT set to 5.05D-01
 ITU=  1  0
 Use linear search instead of GDIIS.
     Eigenvalues ---    0.01008   0.01196   0.01783   0.01928   0.02172
     Eigenvalues ---    0.02340   0.13343   0.15926   0.15975   0.16063
     Eigenvalues ---    0.21781   0.23179   0.24608   0.26104   0.33169
     Eigenvalues ---    0.36236   0.38207   0.38609   0.40016   0.47270
     Eigenvalues ---    0.57280
 RFO step:  Lambda=-7.36953153D-03 EMin= 1.00809305D-02
 Quartic linear search produced a step of  0.07518.
 Iteration  1 RMS(Cart)=  0.06032946 RMS(Int)=  0.00488450
 Iteration  2 RMS(Cart)=  0.00441633 RMS(Int)=  0.00269169
 Iteration  3 RMS(Cart)=  0.00002115 RMS(Int)=  0.00269161
 Iteration  4 RMS(Cart)=  0.00000013 RMS(Int)=  0.00269161
 ITry= 1 IFail=0 DXMaxC= 2.06D-01 DCOld= 1.00D+10 DXMaxT= 5.05D-01 DXLimC= 3.00D+00 Rises=F
 Variable       Old X    -DE/DX   Delta X   Delta X   Delta X     New X
                                 (Linear)    (Quad)   (Total)
    R1        2.59978   0.00517  -0.00973   0.01462   0.00580   2.60559
    R2        2.76286  -0.01324   0.00782  -0.03214  -0.02444   2.73842
    R3        2.07628   0.00571   0.00828   0.01402   0.02230   2.09858
    R4        2.06745   0.00188   0.00245   0.00522   0.00767   2.07512
    R5        3.38482  -0.00426  -0.00392  -0.01437  -0.01742   3.36740
    R6        2.62095  -0.01522   0.00378  -0.03121  -0.02838   2.59258
    R7        2.07134  -0.00146   0.00501  -0.00410   0.00092   2.07225
    R8        3.37977   0.00133  -0.00125   0.00551   0.00350   3.38328
    R9        2.10361  -0.00392   0.00117  -0.01221  -0.01104   2.09258
    A1        1.97069   0.00260   0.00311   0.01162   0.01379   1.98448
    A2        2.11253   0.00607   0.00051   0.04372   0.04327   2.15580
    A3        2.19431  -0.00840  -0.00270  -0.04795  -0.05191   2.14240
    A4        2.18286   0.01225   0.00779   0.08137   0.08550   2.26837
    A5        1.93876  -0.00158  -0.00123   0.00090  -0.00244   1.93632
    A6        2.15037  -0.01024  -0.00620  -0.06190  -0.07198   2.07839
    A7        2.26189   0.00080   0.00657   0.01209   0.01890   2.28079
    A8        1.91798   0.00721  -0.00420   0.03046   0.02307   1.94105
    A9        2.10330  -0.00800  -0.00177  -0.04215  -0.04341   2.05988
   A10        1.99376  -0.00201  -0.00097  -0.01455  -0.01756   1.97620
   A11        2.14954  -0.00146   0.00030  -0.00835  -0.00731   2.14223
   A12        2.13983   0.00347   0.00077   0.02262   0.02395   2.16379
   A13        1.60036  -0.00599   0.00545  -0.01958  -0.01480   1.58556
    D1       -3.00328  -0.00112  -0.00175  -0.12850  -0.13440  -3.13768
    D2       -0.01816   0.00070  -0.00023   0.00599   0.00580  -0.01236
    D3        0.24612  -0.00314  -0.00777  -0.19537  -0.20874   0.03738
    D4       -3.05194  -0.00133  -0.00625  -0.06089  -0.06854  -3.12048
    D5        0.06711  -0.00239  -0.00840  -0.07984  -0.08814  -0.02103
    D6       -3.06407  -0.00206  -0.00341  -0.05011  -0.05309  -3.11716
    D7        3.09490   0.00085  -0.00157  -0.00226  -0.00751   3.08739
    D8       -0.03629   0.00118   0.00343   0.02747   0.02754  -0.00874
    D9       -0.02345   0.00088   0.00600   0.04840   0.05434   0.03089
   D10        2.96511   0.00501   0.00922   0.19494   0.19310  -3.12497
   D11        3.06766   0.00138   0.00433   0.05414   0.05744   3.12510
   D12       -0.08427   0.00102  -0.00062   0.02440   0.02167  -0.06260
   D13       -0.08223   0.00266   0.01381   0.11216   0.12625   0.04402
   D14        3.04902   0.00230   0.00886   0.08241   0.09047   3.13950
   D15        0.06011  -0.00189  -0.01096  -0.09040  -0.10300  -0.04289
   D16       -3.08890  -0.00070  -0.00172  -0.03825  -0.04360  -3.13251
         Item               Value     Threshold  Converged?
 Maximum Force            0.015219     0.000450     NO 
 RMS     Force            0.005430     0.000300     NO 
 Maximum Displacement     0.206028     0.001800     NO 
 RMS     Displacement     0.061850     0.001200     NO 
 Predicted change in Energy=-4.317588D-03
 Lowest energy point so far.  Saving SCF results.
 GradGradGradGradGradGradGradGradGradGradGradGradGradGradGradGradGradGrad

 Leave Link  103 at Mon Apr  4 12:35:35 2016, MaxMem=    33554432 cpu:         0.0
 (Enter /home/dustin/Applications/g09/g09/l202.exe)
                          Input orientation:                          
 ---------------------------------------------------------------------
 Center     Atomic      Atomic             Coordinates (Angstroms)
 Number     Number       Type             X           Y           Z
 ---------------------------------------------------------------------
      1          6           0        0.895960   -0.687924   -0.016374
      2          6           0       -0.368955   -1.236669   -0.018670
      3          6           0       -0.355703    1.307323    0.034734
      4          6           0        0.902511    0.760455    0.029143
      5          1           0        1.836011    1.355905    0.014064
      6          1           0       -0.679989    2.353959    0.078319
      7          1           0       -0.681229   -2.289113   -0.044809
      8          1           0        1.826274   -1.291285   -0.077385
      9         16           0       -1.615029    0.034931    0.056698
 ---------------------------------------------------------------------
                    Distance matrix (angstroms):
                    1          2          3          4          5
     1  C    0.000000
     2  C    1.378816   0.000000
     3  C    2.355904   2.544587   0.000000
     4  C    1.449109   2.367998   1.371932   0.000000
     5  H    2.249858   3.403584   2.192350   1.107344   0.000000
     6  H    3.427191   3.605379   1.096589   2.246326   2.707489
     7  H    2.247696   1.098106   3.612014   3.437087   4.430138
     8  H    1.110519   2.196693   3.395049   2.252626   2.648787
     9  S    2.613986   1.781951   1.790353   2.620143   3.695466
                    6          7          8          9
     6  H    0.000000
     7  H    4.644705   0.000000
     8  H    4.426443   2.698944   0.000000
     9  S    2.500531   2.506685   3.690446   0.000000
 Stoichiometry    C4H4S
 Framework group  C1[X(C4H4S)]
 Deg. of freedom    21
 Full point group                 C1      NOp   1
 RotChk:  IX=2 Diff= 8.75D-02
 Largest Abelian subgroup         C1      NOp   1
 Largest concise Abelian subgroup C1      NOp   1
                         Standard orientation:                         
 ---------------------------------------------------------------------
 Center     Atomic      Atomic             Coordinates (Angstroms)
 Number     Number       Type             X           Y           Z
 ---------------------------------------------------------------------
      1          6           0       -1.278102    0.735453    0.005763
      2          6           0       -0.008327    1.272636   -0.009812
      3          6           0       -0.044792   -1.271666   -0.020729
      4          6           0       -1.297547   -0.713498    0.014630
      5          1           0       -2.236814   -1.299917    0.004526
      6          1           0        0.270314   -2.321960   -0.010713
      7          1           0        0.313381    2.322543   -0.015939
      8          1           0       -2.203685    1.348551   -0.019885
      9         16           0        1.226838   -0.011673    0.006431
 ---------------------------------------------------------------------
 Rotational constants (GHZ):      7.6732917      5.1620541      3.0864326
 Leave Link  202 at Mon Apr  4 12:35:35 2016, MaxMem=    33554432 cpu:         0.0
 (Enter /home/dustin/Applications/g09/g09/l301.exe)

 Semi-emprical parameters in input format:
 Method=8 CoreType=1 PeptideFC=0.0115813645 RIJScale=0.5291772086
 ****
 H       
 PQN=1 NValence=1 F0ss=0.4305859188 ZetaOverlap=1.2049882087 U=-0.4189691428
 Beta=-0.2161095214 CoreKO=1.0488708569 KON=0,0,0,1.0171631126 KON=1,0,1,1.0589197790
 KON=0,1,1,1.0589197790 KON=2,1,1,1.0589197790 EISol=-0.4188110042 EHeat=0.0830298228
 Alpha=1.5252601686
 GCore=0.0085277107,1.4001425905,2.2633912063
 GCore=0.0003382177,1.4294003553,3.5354159128
 GCore=-0.0013139269,0.5600570362,3.9684248791
 ****
 C       
 PQN=2,2 NValence=4 F0ss=0.4478367758 F0sp=0.4215147623 F0pp=0.3759224541 F2pp=0.1801054510
 G1sp=0.2613968729
 ZetaOverlap=1.8226714975,1.5637296242
 U=-1.9663092920,-1.4679628191
 Beta=-0.6190518029,-0.2836784428 DDN=0,1,0.8458762323 DDN=1,1,0.7060741323
 CoreKO=1.0449172975 KON=0,0,0,1.1124284736 KON=1,0,1,0.8484813696 KON=0,1,1,1.1399886655
 KON=2,1,1,0.7783928119 EISol=-4.4398989268 EHeat=0.2723305520 Alpha=1.4014062429
 DipHyp=1.6916551366
 GCore=0.0007885612,1.4052753055,3.5013577594
 GCore=0.0033292985,1.4001425905,3.4959933458
 GCore=-0.0013196868,1.4211052049,3.9077570272
 GCore=-0.0000892872,1.3774926461,5.0077742521
 ****
 S       
 PQN=3,3 NValence=6 F0ss=0.4331396397 F0sp=0.3188254963 F0pp=0.3136271218 F2pp=0.3456917167
 G1sp=0.2791629797
 ZetaOverlap=2.2928078760,1.7303847570,0.9805994118
 U=-2.1542460346,-1.7903186861
 Beta=-0.1472236126,-0.2905136336 DDN=0,1,0.8980720022 DDN=1,1,1.0036329000
 CoreKO=1.2938683185 KON=0,0,0,1.0797469645 KON=1,0,1,0.8675650550 KON=0,1,1,1.1543033468
 KON=2,1,1,0.8057671925 EISol=-7.0460287497 EHeat=0.1058151363 Alpha=1.2170196144
 DipHyp=1.7960406707
 GCore=-0.0317270650,1.2863644833,1.5491231084
 GCore=-0.0008238398,1.6425719595,2.9558459823
 GCore=0.0008565489,3.7964407093,3.8030664189
 ****
 
 Standard basis: VSTO-6G (5D, 7F)
 Ernie: Thresh=  0.10000D-02 Tol=  0.10000D-05 Strict=F.
  NNHCO=     0 NNPyr=     0 NCTC=     0               EPep=         0.000000000
    EC=        63.033242295  ECS=         1.609618911   EG=         0.144321337
   EHC=         0.000000000  EAt=       -26.480868474  AtH=         1.527256636
 EPDDG=         0.000000000  ECC=        64.787182543 EAtT=        28.008125109
 There are    24 symmetry adapted cartesian basis functions of A   symmetry.
 There are    24 symmetry adapted basis functions of A   symmetry.
    24 basis functions,   144 primitive gaussians,    24 cartesian basis functions
    13 alpha electrons       13 beta electrons
       nuclear repulsion energy        92.7953076522 Hartrees.
 IExCor=    0 DFT=F Ex=HF Corr=None ExCW=0 ScaHFX=  1.000000
 ScaDFX=  1.000000  1.000000  1.000000  1.000000 ScalE2=  1.000000  1.000000
 IRadAn=      0 IRanWt=     -1 IRanGd=            0 ICorTp=0 IEmpDi=  4
 Integral buffers will be    131072 words long.
 Regular integral format.
 Two-electron integral symmetry is turned off.
 Leave Link  301 at Mon Apr  4 12:35:35 2016, MaxMem=    33554432 cpu:         0.0
 (Enter /home/dustin/Applications/g09/g09/l302.exe)
 Do NDO integrals.
 NPDir=0 NMtPBC=     1 NCelOv=     1 NCel=       1 NClECP=     1 NCelD=      1
         NCelK=      1 NCelE2=     1 NClLst=     1 CellRange=     0.0.
 One-electron integrals computed using PRISM.
 NBasis=    24 RedAO= F EigKep=  0.00D+00  NBF=    24
 NBsUse=    24 1.00D-04 EigRej=  0.00D+00 NBFU=    24
 Leave Link  302 at Mon Apr  4 12:35:35 2016, MaxMem=    33554432 cpu:         0.0
 (Enter /home/dustin/Applications/g09/g09/l303.exe)
 DipDrv:  MaxL=1.
 Leave Link  303 at Mon Apr  4 12:35:35 2016, MaxMem=    33554432 cpu:         0.0
 (Enter /home/dustin/Applications/g09/g09/l401.exe)
 Initial guess from the checkpoint file:  "best.chk"
 B after Tr=     0.000000    0.000000    0.000000
         Rot=    0.999726    0.000032   -0.000133    0.023416 Ang=   2.68 deg.
 Guess basis will be translated and rotated to current coordinates.
 JPrj=0 DoOrth=T DoCkMO=T.
 Leave Link  401 at Mon Apr  4 12:35:35 2016, MaxMem=    33554432 cpu:         0.0
 (Enter /home/dustin/Applications/g09/g09/l502.exe)
 Closed shell SCF:
 Using DIIS extrapolation, IDIIS=  1040.
 Overlap will be assumed to be unity.
 Two-electron integral symmetry not used.
 Keep J ints in memory in canonical form, NReq=888082.
 IVT=       79475 IEndB=       79475 NGot=    33554432 MDV=    33473473
 LenX=    33473473 LenY=    33472456
 Requested convergence on RMS density matrix=1.00D-08 within 128 cycles.
 Requested convergence on MAX density matrix=1.00D-06.
 Requested convergence on             energy=1.00D-06.
 No special actions if energy rises.
 FoFCou: FMM=F IPFlag=           0 FMFlag=           0 FMFlg1=           0
         NFxFlg=           0 DoJE=F BraDBF=F KetDBF=F FulRan=T
         wScrn=  0.000000 ICntrl=     600 IOpCl=  2 I1Cent=           0 NGrid=           0
         NMat0=    1 NMatS0=     54 NMatT0=    0 NMatD0=    1 NMtDS0=    0 NMtDT0=    0
 Symmetry not used in FoFCou.

 Cycle   1  Pass 1  IDiag  1:
 E=-0.682275336519908    
 DIIS: error= 6.88D-03 at cycle   1 NSaved=   1.
 NSaved= 1 IEnMin= 1 EnMin=-0.682275336519908     IErMin= 1 ErrMin= 6.88D-03
 ErrMax= 6.88D-03  0.00D+00 EMaxC= 1.00D-01 BMatC= 1.40D-03 BMatP= 1.40D-03
 IDIUse=3 WtCom= 9.31D-01 WtEn= 6.88D-02
 Coeff-Com:  0.100D+01
 Coeff-En:   0.100D+01
 Coeff:      0.100D+01
 GapD=    2.000 DampG=2.000 DampE=1.000 DampFc=2.0000 IDamp=-1.
 RMSDP=3.18D-03 MaxDP=2.06D-02              OVMax= 0.00D+00

 Cycle   2  Pass 1  IDiag  3:
 E=-0.687647498552494     Delta-E=       -0.005372162033 Rises=F Damp=F
 DIIS: error= 3.11D-03 at cycle   2 NSaved=   2.
 NSaved= 2 IEnMin= 2 EnMin=-0.687647498552494     IErMin= 2 ErrMin= 3.11D-03
 ErrMax= 3.11D-03  0.00D+00 EMaxC= 1.00D-01 BMatC= 2.32D-04 BMatP= 1.40D-03
 IDIUse=3 WtCom= 9.69D-01 WtEn= 3.11D-02
 Coeff-Com: -0.539D+00 0.154D+01
 Coeff-En:   0.000D+00 0.100D+01
 Coeff:     -0.522D+00 0.152D+01
 Gap=     0.365 Goal=   None    Shift=    0.000
 RMSDP=2.36D-03 MaxDP=1.50D-02 DE=-5.37D-03 OVMax= 1.40D-02

 Cycle   3  Pass 1  IDiag  3:
 E=-0.689097401189343     Delta-E=       -0.001449902637 Rises=F Damp=F
 DIIS: error= 6.51D-04 at cycle   3 NSaved=   3.
 NSaved= 3 IEnMin= 3 EnMin=-0.689097401189343     IErMin= 3 ErrMin= 6.51D-04
 ErrMax= 6.51D-04  0.00D+00 EMaxC= 1.00D-01 BMatC= 1.39D-05 BMatP= 2.32D-04
 IDIUse=3 WtCom= 9.93D-01 WtEn= 6.51D-03
 Coeff-Com:  0.249D+00-0.887D+00 0.164D+01
 Coeff-En:   0.000D+00 0.000D+00 0.100D+01
 Coeff:      0.247D+00-0.881D+00 0.163D+01
 Gap=     0.365 Goal=   None    Shift=    0.000
 RMSDP=8.28D-04 MaxDP=4.60D-03 DE=-1.45D-03 OVMax= 5.97D-03

 Cycle   4  Pass 1  IDiag  3:
 E=-0.689210192211263     Delta-E=       -0.000112791022 Rises=F Damp=F
 DIIS: error= 9.13D-05 at cycle   4 NSaved=   4.
 NSaved= 4 IEnMin= 4 EnMin=-0.689210192211263     IErMin= 4 ErrMin= 9.13D-05
 ErrMax= 9.13D-05  0.00D+00 EMaxC= 1.00D-01 BMatC= 4.17D-07 BMatP= 1.39D-05
 IDIUse=1 WtCom= 1.00D+00 WtEn= 0.00D+00
 Coeff-Com: -0.126D+00 0.461D+00-0.932D+00 0.160D+01
 Coeff:     -0.126D+00 0.461D+00-0.932D+00 0.160D+01
 Gap=     0.365 Goal=   None    Shift=    0.000
 RMSDP=1.45D-04 MaxDP=7.73D-04 DE=-1.13D-04 OVMax= 1.19D-03

 Cycle   5  Pass 1  IDiag  3:
 E=-0.689213946889410     Delta-E=       -0.000003754678 Rises=F Damp=F
 DIIS: error= 2.18D-05 at cycle   5 NSaved=   5.
 NSaved= 5 IEnMin= 5 EnMin=-0.689213946889410     IErMin= 5 ErrMin= 2.18D-05
 ErrMax= 2.18D-05  0.00D+00 EMaxC= 1.00D-01 BMatC= 2.86D-08 BMatP= 4.17D-07
 IDIUse=1 WtCom= 1.00D+00 WtEn= 0.00D+00
 Coeff-Com:  0.130D-01-0.488D-01 0.112D+00-0.436D+00 0.136D+01
 Coeff:      0.130D-01-0.488D-01 0.112D+00-0.436D+00 0.136D+01
 Gap=     0.365 Goal=   None    Shift=    0.000
 RMSDP=4.10D-05 MaxDP=2.39D-04 DE=-3.75D-06 OVMax= 3.85D-04

 Cycle   6  Pass 1  IDiag  3:
 E=-0.689214216055248     Delta-E=       -0.000000269166 Rises=F Damp=F
 DIIS: error= 6.81D-06 at cycle   6 NSaved=   6.
 NSaved= 6 IEnMin= 6 EnMin=-0.689214216055248     IErMin= 6 ErrMin= 6.81D-06
 ErrMax= 6.81D-06  0.00D+00 EMaxC= 1.00D-01 BMatC= 2.06D-09 BMatP= 2.86D-08
 IDIUse=1 WtCom= 1.00D+00 WtEn= 0.00D+00
 Coeff-Com:  0.361D-02-0.127D-01 0.210D-01 0.620D-01-0.546D+00 0.147D+01
 Coeff:      0.361D-02-0.127D-01 0.210D-01 0.620D-01-0.546D+00 0.147D+01
 Gap=     0.365 Goal=   None    Shift=    0.000
 RMSDP=1.08D-05 MaxDP=5.66D-05 DE=-2.69D-07 OVMax= 1.04D-04

 Cycle   7  Pass 1  IDiag  3:
 E=-0.689214234954235     Delta-E=       -0.000000018899 Rises=F Damp=F
 DIIS: error= 1.79D-06 at cycle   7 NSaved=   7.
 NSaved= 7 IEnMin= 7 EnMin=-0.689214234954235     IErMin= 7 ErrMin= 1.79D-06
 ErrMax= 1.79D-06  0.00D+00 EMaxC= 1.00D-01 BMatC= 1.37D-10 BMatP= 2.06D-09
 IDIUse=1 WtCom= 1.00D+00 WtEn= 0.00D+00
 Coeff-Com: -0.250D-02 0.887D-02-0.160D-01-0.123D-01 0.223D+00-0.790D+00
 Coeff-Com:  0.159D+01
 Coeff:     -0.250D-02 0.887D-02-0.160D-01-0.123D-01 0.223D+00-0.790D+00
 Coeff:      0.159D+01
 Gap=     0.365 Goal=   None    Shift=    0.000
 RMSDP=2.95D-06 MaxDP=1.79D-05 DE=-1.89D-08 OVMax= 3.34D-05

 Cycle   8  Pass 1  IDiag  3:
 E=-0.689214236322215     Delta-E=       -0.000000001368 Rises=F Damp=F
 DIIS: error= 4.11D-07 at cycle   8 NSaved=   8.
 NSaved= 8 IEnMin= 8 EnMin=-0.689214236322215     IErMin= 8 ErrMin= 4.11D-07
 ErrMax= 4.11D-07  0.00D+00 EMaxC= 1.00D-01 BMatC= 1.07D-11 BMatP= 1.37D-10
 IDIUse=1 WtCom= 1.00D+00 WtEn= 0.00D+00
 Coeff-Com:  0.135D-02-0.480D-02 0.880D-02 0.422D-02-0.108D+00 0.409D+00
 Coeff-Com: -0.101D+01 0.170D+01
 Coeff:      0.135D-02-0.480D-02 0.880D-02 0.422D-02-0.108D+00 0.409D+00
 Coeff:     -0.101D+01 0.170D+01
 Gap=     0.365 Goal=   None    Shift=    0.000
 RMSDP=9.24D-07 MaxDP=5.43D-06 DE=-1.37D-09 OVMax= 1.28D-05

 Cycle   9  Pass 1  IDiag  3:
 E=-0.689214236439611     Delta-E=       -0.000000000117 Rises=F Damp=F
 DIIS: error= 1.28D-07 at cycle   9 NSaved=   9.
 NSaved= 9 IEnMin= 9 EnMin=-0.689214236439611     IErMin= 9 ErrMin= 1.28D-07
 ErrMax= 1.28D-07  0.00D+00 EMaxC= 1.00D-01 BMatC= 7.03D-13 BMatP= 1.07D-11
 IDIUse=1 WtCom= 1.00D+00 WtEn= 0.00D+00
 Coeff-Com: -0.358D-03 0.127D-02-0.233D-02-0.972D-03 0.280D-01-0.109D+00
 Coeff-Com:  0.290D+00-0.676D+00 0.147D+01
 Coeff:     -0.358D-03 0.127D-02-0.233D-02-0.972D-03 0.280D-01-0.109D+00
 Coeff:      0.290D+00-0.676D+00 0.147D+01
 Gap=     0.365 Goal=   None    Shift=    0.000
 RMSDP=2.26D-07 MaxDP=1.40D-06 DE=-1.17D-10 OVMax= 3.26D-06

 Cycle  10  Pass 1  IDiag  3:
 E=-0.689214236447029     Delta-E=       -0.000000000007 Rises=F Damp=F
 DIIS: error= 3.65D-08 at cycle  10 NSaved=  10.
 NSaved=10 IEnMin=10 EnMin=-0.689214236447029     IErMin=10 ErrMin= 3.65D-08
 ErrMax= 3.65D-08  0.00D+00 EMaxC= 1.00D-01 BMatC= 6.11D-14 BMatP= 7.03D-13
 IDIUse=1 WtCom= 1.00D+00 WtEn= 0.00D+00
 Coeff-Com:  0.129D-04-0.433D-04 0.779D-04-0.603D-04-0.322D-03 0.242D-02
 Coeff-Com: -0.127D-01 0.832D-01-0.515D+00 0.144D+01
 Coeff:      0.129D-04-0.433D-04 0.779D-04-0.603D-04-0.322D-03 0.242D-02
 Coeff:     -0.127D-01 0.832D-01-0.515D+00 0.144D+01
 Gap=     0.365 Goal=   None    Shift=    0.000
 RMSDP=6.58D-08 MaxDP=4.07D-07 DE=-7.42D-12 OVMax= 8.66D-07

 Cycle  11  Pass 1  IDiag  3:
 E=-0.689214236447612     Delta-E=       -0.000000000001 Rises=F Damp=F
 DIIS: error= 8.51D-09 at cycle  11 NSaved=  11.
 NSaved=11 IEnMin=11 EnMin=-0.689214236447612     IErMin=11 ErrMin= 8.51D-09
 ErrMax= 8.51D-09  0.00D+00 EMaxC= 1.00D-01 BMatC= 4.18D-15 BMatP= 6.11D-14
 IDIUse=1 WtCom= 1.00D+00 WtEn= 0.00D+00
 Coeff-Com:  0.135D-04-0.492D-04 0.895D-04 0.110D-03-0.154D-02 0.526D-02
 Coeff-Com: -0.108D-01 0.101D-02 0.146D+00-0.669D+00 0.153D+01
 Coeff:      0.135D-04-0.492D-04 0.895D-04 0.110D-03-0.154D-02 0.526D-02
 Coeff:     -0.108D-01 0.101D-02 0.146D+00-0.669D+00 0.153D+01
 Gap=     0.365 Goal=   None    Shift=    0.000
 RMSDP=1.63D-08 MaxDP=9.57D-08 DE=-5.83D-13 OVMax= 1.73D-07

 Cycle  12  Pass 1  IDiag  3:
 E=-0.689214236447654     Delta-E=        0.000000000000 Rises=F Damp=F
 DIIS: error= 2.08D-09 at cycle  12 NSaved=  12.
 NSaved=12 IEnMin=12 EnMin=-0.689214236447654     IErMin=12 ErrMin= 2.08D-09
 ErrMax= 2.08D-09  0.00D+00 EMaxC= 1.00D-01 BMatC= 2.15D-16 BMatP= 4.18D-15
 IDIUse=1 WtCom= 1.00D+00 WtEn= 0.00D+00
 Coeff-Com: -0.598D-05 0.215D-04-0.391D-04-0.408D-04 0.625D-03-0.219D-02
 Coeff-Com:  0.483D-02-0.403D-02-0.350D-01 0.201D+00-0.631D+00 0.147D+01
 Coeff:     -0.598D-05 0.215D-04-0.391D-04-0.408D-04 0.625D-03-0.219D-02
 Coeff:      0.483D-02-0.403D-02-0.350D-01 0.201D+00-0.631D+00 0.147D+01
 Gap=     0.365 Goal=   None    Shift=    0.000
 RMSDP=3.40D-09 MaxDP=1.69D-08 DE=-4.26D-14 OVMax= 3.89D-08

 Cycle  13  Pass 2  IDiag  1:
 SCF Done:  E(RAM1) = -0.689214236448     A.U. after   13 cycles
            NFock= 12  Conv=0.34D-08     -V/T= 0.9548
 KE=-1.525166944726D+01 PE=-1.531832856208D+02 EE= 7.495043317943D+01
 Leave Link  502 at Mon Apr  4 12:35:35 2016, MaxMem=    33554432 cpu:         0.0
 (Enter /home/dustin/Applications/g09/g09/l701.exe)
 Compute integral first derivatives.
 ... and contract with generalized density number  0.
 Leave Link  701 at Mon Apr  4 12:35:35 2016, MaxMem=    33554432 cpu:         0.0
 (Enter /home/dustin/Applications/g09/g09/l702.exe)
 L702 exits ... SP integral derivatives will be done elsewhere.
 Leave Link  702 at Mon Apr  4 12:35:35 2016, MaxMem=    33554432 cpu:         0.0
 (Enter /home/dustin/Applications/g09/g09/l703.exe)
 Compute integral first derivatives, UseDBF=F ICtDFT=           0.
 Integral derivatives from FoFJK, PRISM(SPDF).
 Calling FoFJK, ICntrl=      2127 FMM=F ISym2X=0 I1Cent= 0 IOpClX= 0 NMat=1 NMatS=1 NMatT=0.
 FoFJK:  IHMeth= 8 ICntrl=    2127 DoSepK=F KAlg= 0 I1Cent=   0 FoldK=F
 IRaf=         0 NMat=   1 IRICut=       1 DoRegI=T DoRafI=F ISym2E= 0.
 FoFCou: FMM=F IPFlag=           0 FMFlag=      100000 FMFlg1=         800
         NFxFlg=           0 DoJE=F BraDBF=F KetDBF=F FulRan=T
         wScrn=  0.000000 ICntrl=    2127 IOpCl=  0 I1Cent=           0 NGrid=           0
         NMat0=    1 NMatS0=      1 NMatT0=    0 NMatD0=    1 NMtDS0=    0 NMtDT0=    0
 Symmetry not used in FoFCou.
 Leave Link  703 at Mon Apr  4 12:35:35 2016, MaxMem=    33554432 cpu:         0.0
 (Enter /home/dustin/Applications/g09/g09/l716.exe)
 Dipole        =-3.91522902D-01 3.81678361D-03-1.64410474D-02
 ***** Axes restored to original set *****
 -------------------------------------------------------------------
 Center     Atomic                   Forces (Hartrees/Bohr)
 Number     Number              X              Y              Z
 -------------------------------------------------------------------
      1        6          -0.001305765   -0.008170160   -0.001842610
      2        6           0.008624391   -0.003719131    0.001488149
      3        6          -0.001440626    0.006916785    0.004999102
      4        6           0.001964765    0.001438254   -0.004029547
      5        1           0.000860786   -0.000593279    0.000796716
      6        1          -0.001770665   -0.001250351   -0.000902679
      7        1          -0.002103599    0.002587860   -0.000017725
      8        1          -0.000850047    0.001811744    0.001280915
      9       16          -0.003979240    0.000978277   -0.001772320
 -------------------------------------------------------------------
 Cartesian Forces:  Max     0.008624391 RMS     0.003351587
 Leave Link  716 at Mon Apr  4 12:35:35 2016, MaxMem=    33554432 cpu:         0.0
 (Enter /home/dustin/Applications/g09/g09/l103.exe)

[...]
     Eigenvalues ---    0.03964   0.09217   0.15215   0.16000   0.16081
     Eigenvalues ---    0.20570   0.22001   0.23765   0.25880   0.32978
     Eigenvalues ---    0.36046   0.38268   0.39565   0.43521   0.50965
     Eigenvalues ---    0.65878
 En-DIIS/RFO-DIIS IScMMF=        0 using points:     7    6    5
 RFO step:  Lambda=-3.24327732D-07.
 NNeg= 0 NP= 3 Switch=  2.50D-03 Rises=F DC=  1.05D-04 SmlDif=  1.00D-05
 RMS Error=  0.1347434884D-03 NUsed= 3 EDIIS=F
 DidBck=F Rises=F RFO-DIIS coefs:    0.93998    0.06841   -0.00839
 Iteration  1 RMS(Cart)=  0.00049613 RMS(Int)=  0.00000046
 Iteration  2 RMS(Cart)=  0.00000019 RMS(Int)=  0.00000040
 ITry= 1 IFail=0 DXMaxC= 1.55D-03 DCOld= 1.00D+10 DXMaxT= 8.49D-01 DXLimC= 3.00D+00 Rises=F
 Variable       Old X    -DE/DX   Delta X   Delta X   Delta X     New X
                                 (Linear)    (Quad)   (Total)
    R1        2.59460   0.00033   0.00005   0.00059   0.00065   2.59525
    R2        2.74981   0.00004   0.00002   0.00008   0.00010   2.74991
    R3        2.09354   0.00002   0.00001  -0.00007  -0.00006   2.09348
    R4        2.06901  -0.00001   0.00001  -0.00009  -0.00008   2.06893
    R5        3.39250   0.00016  -0.00007   0.00098   0.00091   3.39341
    R6        2.59483   0.00017   0.00005   0.00010   0.00015   2.59497
    R7        2.06891   0.00000  -0.00001   0.00000  -0.00001   2.06890
    R8        3.39324   0.00009  -0.00003   0.00043   0.00040   3.39364
    R9        2.09360   0.00000  -0.00002   0.00009   0.00007   2.09367
    A1        1.98481  -0.00003  -0.00004   0.00007   0.00003   1.98484
    A2        2.17182   0.00001   0.00000  -0.00006  -0.00006   2.17176
    A3        2.12655   0.00002   0.00003  -0.00001   0.00003   2.12658
    A4        2.30742   0.00007  -0.00012   0.00080   0.00068   2.30810
    A5        1.93414  -0.00002   0.00002  -0.00019  -0.00017   1.93397
    A6        2.04163  -0.00005   0.00010  -0.00061  -0.00051   2.04112
    A7        2.30809   0.00001  -0.00005   0.00025   0.00021   2.30829
    A8        1.93386   0.00004  -0.00001   0.00014   0.00013   1.93399
    A9        2.04124  -0.00005   0.00006  -0.00039  -0.00034   2.04090
   A10        1.98478   0.00000   0.00000   0.00010   0.00010   1.98488
   A11        2.12700  -0.00004   0.00004  -0.00042  -0.00038   2.12663
   A12        2.17140   0.00004  -0.00004   0.00032   0.00028   2.17168
   A13        1.58718   0.00001   0.00002  -0.00011  -0.00009   1.58709
    D1        3.14068   0.00002   0.00005   0.00156   0.00161  -3.14089
    D2       -0.00034   0.00001   0.00030   0.00028   0.00057   0.00023
    D3       -0.00098   0.00001  -0.00022   0.00187   0.00165   0.00067
    D4        3.14118   0.00000   0.00002   0.00059   0.00061  -3.14139
    D5        0.00065  -0.00002  -0.00028  -0.00054  -0.00083  -0.00018
    D6        3.14153   0.00000   0.00002  -0.00025  -0.00023   3.14129
    D7       -3.14088  -0.00002  -0.00002  -0.00085  -0.00086   3.14144
    D8        0.00000   0.00001   0.00029  -0.00055  -0.00027  -0.00027
    D9       -0.00001   0.00000  -0.00019   0.00002  -0.00017  -0.00018
   D10       -3.14113  -0.00001   0.00001  -0.00105  -0.00103   3.14102
   D11        3.14122   0.00001   0.00033  -0.00024   0.00009   3.14130
   D12        0.00036  -0.00001   0.00001  -0.00054  -0.00053  -0.00017
   D13       -0.00063   0.00002   0.00013   0.00054   0.00067   0.00003
   D14       -3.14149   0.00000  -0.00018   0.00024   0.00005  -3.14143
   D15        0.00037  -0.00001   0.00003  -0.00032  -0.00029   0.00008
   D16       -3.14143  -0.00001  -0.00013   0.00033   0.00019  -3.14124
         Item               Value     Threshold  Converged?
 Maximum Force            0.000330     0.000450     YES
 RMS     Force            0.000071     0.000300     YES
 Maximum Displacement     0.001552     0.001800     YES
 RMS     Displacement     0.000496     0.001200     YES
 Predicted change in Energy=-3.448507D-07
 Optimization completed.
    -- Stationary point found.
                           ----------------------------
                           !   Optimized Parameters   !
                           ! (Angstroms and Degrees)  !
 --------------------------                            --------------------------
 ! Name  Definition              Value          Derivative Info.                !
 --------------------------------------------------------------------------------
 ! R1    R(1,2)                  1.373          -DE/DX =    0.0003              !
 ! R2    R(1,4)                  1.4551         -DE/DX =    0.0                 !
 ! R3    R(1,8)                  1.1079         -DE/DX =    0.0                 !
 ! R4    R(2,7)                  1.0949         -DE/DX =    0.0                 !
 ! R5    R(2,9)                  1.7952         -DE/DX =    0.0002              !
 ! R6    R(3,4)                  1.3731         -DE/DX =    0.0002              !
 ! R7    R(3,6)                  1.0948         -DE/DX =    0.0                 !
 ! R8    R(3,9)                  1.7956         -DE/DX =    0.0001              !
 ! R9    R(4,5)                  1.1079         -DE/DX =    0.0                 !
 ! A1    A(2,1,4)              113.7214         -DE/DX =    0.0                 !
 ! A2    A(2,1,8)              124.4362         -DE/DX =    0.0                 !
 ! A3    A(4,1,8)              121.8424         -DE/DX =    0.0                 !
 ! A4    A(1,2,7)              132.2052         -DE/DX =    0.0001              !
 ! A5    A(1,2,9)              110.8181         -DE/DX =    0.0                 !
 ! A6    A(7,2,9)              116.9766         -DE/DX =   -0.0001              !
 ! A7    A(4,3,6)              132.2437         -DE/DX =    0.0                 !
 ! A8    A(4,3,9)              110.8019         -DE/DX =    0.0                 !
 ! A9    A(6,3,9)              116.9544         -DE/DX =    0.0                 !
 ! A10   A(1,4,3)              113.7197         -DE/DX =    0.0                 !
 ! A11   A(1,4,5)              121.8683         -DE/DX =    0.0                 !
 ! A12   A(3,4,5)              124.4119         -DE/DX =    0.0                 !
 ! A13   A(2,9,3)               90.9388         -DE/DX =    0.0                 !
 ! D1    D(4,1,2,7)           -180.0522         -DE/DX =    0.0                 !
 ! D2    D(4,1,2,9)             -0.0195         -DE/DX =    0.0                 !
 ! D3    D(8,1,2,7)             -0.0561         -DE/DX =    0.0                 !
 ! D4    D(8,1,2,9)           -180.0235         -DE/DX =    0.0                 !
 ! D5    D(2,1,4,3)              0.0372         -DE/DX =    0.0                 !
 ! D6    D(2,1,4,5)            179.9961         -DE/DX =    0.0                 !
 ! D7    D(8,1,4,3)            180.0411         -DE/DX =    0.0                 !
 ! D8    D(8,1,4,5)              0.0            -DE/DX =    0.0                 !
 ! D9    D(1,2,9,3)             -0.0006         -DE/DX =    0.0                 !
 ! D10   D(7,2,9,3)            180.0266         -DE/DX =    0.0                 !
 ! D11   D(6,3,4,1)            179.9784         -DE/DX =    0.0                 !
 ! D12   D(6,3,4,5)              0.0207         -DE/DX =    0.0                 !
 ! D13   D(9,3,4,1)             -0.0363         -DE/DX =    0.0                 !
 ! D14   D(9,3,4,5)           -179.994          -DE/DX =    0.0                 !
 ! D15   D(4,3,9,2)              0.0213         -DE/DX =    0.0                 !
 ! D16   D(6,3,9,2)           -179.9909         -DE/DX =    0.0                 !
 --------------------------------------------------------------------------------
 Lowest energy point so far.  Saving SCF results.
 GradGradGradGradGradGradGradGradGradGradGradGradGradGradGradGradGradGrad

 Largest change from initial coordinates is atom    7       0.063 Angstoms.
 Leave Link  103 at Mon Apr  4 12:35:36 2016, MaxMem=    33554432 cpu:         0.0
 (Enter /home/dustin/Applications/g09/g09/l202.exe)
                          Input orientation:                          
 ---------------------------------------------------------------------
 Center     Atomic      Atomic             Coordinates (Angstroms)
 Number     Number       Type             X           Y           Z
 ---------------------------------------------------------------------
      1          6           0        0.900563   -0.693892   -0.027792
      2          6           0       -0.357104   -1.244630   -0.017639
      3          6           0       -0.352971    1.314249    0.052338
      4          6           0        0.902974    0.760712    0.011521
      5          1           0        1.844643    1.344374    0.008618
      6          1           0       -0.698998    2.352342    0.087853
      7          1           0       -0.705885   -2.282233   -0.039507
      8          1           0        1.840530   -1.279217   -0.062293
      9         16           0       -1.613901    0.035876    0.042621
 ---------------------------------------------------------------------
                    Distance matrix (angstroms):
                    1          2          3          4          5
     1  C    0.000000
     2  C    1.373005   0.000000
     3  C    2.368628   2.559839   0.000000
     4  C    1.455137   2.368553   1.373123   0.000000
     5  H    2.246584   3.398724   2.198255   1.107886   0.000000
     6  H    3.442602   3.614724   1.094821   2.259519   2.737223
     7  H    2.259124   1.094873   3.614923   3.442462   4.433936
     8  H    1.107852   2.198360   3.398626   2.246280   2.624553
     9  S    2.619169   1.795234   1.795627   2.619354   3.697952
                    6          7          8          9
     6  H    0.000000
     7  H    4.636330   0.000000
     8  H    4.433957   2.736931   0.000000
     9  S    2.491006   2.490957   3.697779   0.000000
 Stoichiometry    C4H4S
 Framework group  C1[X(C4H4S)]
 Deg. of freedom    21
 Full point group                 C1      NOp   1
 RotChk:  IX=0 Diff= 1.66D-15
 Largest Abelian subgroup         C1      NOp   1
 Largest concise Abelian subgroup C1      NOp   1
                         Standard orientation:                         
 ---------------------------------------------------------------------
 Center     Atomic      Atomic             Coordinates (Angstroms)
 Number     Number       Type             X           Y           Z
 ---------------------------------------------------------------------
      1          6           0       -1.287743    0.727858    0.000126
      2          6           0       -0.030567    1.279809    0.000024
      3          6           0       -0.031247   -1.280031    0.000133
      4          6           0       -1.288201   -0.727279   -0.000276
      5          1           0       -2.229271   -1.311913   -0.000183
      6          1           0        0.316253   -2.318239    0.000307
      7          1           0        0.316875    2.318091   -0.000498
      8          1           0       -2.228681    1.312640    0.000542
      9         16           0        1.228211   -0.000170   -0.000013
 ---------------------------------------------------------------------
 Rotational constants (GHZ):      7.6198305      5.1509457      3.0733711
 Leave Link  202 at Mon Apr  4 12:35:36 2016, MaxMem=    33554432 cpu:         0.0
 (Enter /home/dustin/Applications/g09/g09/l601.exe)
 Copying SCF densities to generalized density rwf, IOpCl= 0 IROHF=0.

 **********************************************************************

            Population analysis using the SCF density.

 **********************************************************************

 Orbital symmetries:
       Occupied  (A) (A) (A) (A) (A) (A) (A) (A) (A) (A) (A) (A)
                 (A)
       Virtual   (A) (A) (A) (A) (A) (A) (A) (A) (A) (A) (A)
 The electronic state is 1-A.
 Alpha  occ. eigenvalues --   -1.48378  -1.19507  -0.99177  -0.80376  -0.74866
 Alpha  occ. eigenvalues --   -0.66391  -0.55157  -0.54688  -0.53777  -0.51095
 Alpha  occ. eigenvalues --   -0.46315  -0.38520  -0.38099
 Alpha virt. eigenvalues --   -0.01686  -0.00379   0.01946   0.03630   0.08033
 Alpha virt. eigenvalues --    0.10169   0.13012   0.13410   0.14115   0.15349
 Alpha virt. eigenvalues --    0.16236
          Condensed to atoms (all electrons):
               1          2          3          4          5          6
     1  C    4.170528   0.000000   0.000000   0.000000   0.000000   0.000000
     2  C    0.000000   3.990225   0.000000   0.000000   0.000000   0.000000
     3  C    0.000000   0.000000   3.990289   0.000000   0.000000   0.000000
     4  C    0.000000   0.000000   0.000000   4.170447   0.000000   0.000000
     5  H    0.000000   0.000000   0.000000   0.000000   0.896553   0.000000
     6  H    0.000000   0.000000   0.000000   0.000000   0.000000   0.898419
     7  H    0.000000   0.000000   0.000000   0.000000   0.000000   0.000000
     8  H    0.000000   0.000000   0.000000   0.000000   0.000000   0.000000
     9  S    0.000000   0.000000   0.000000   0.000000   0.000000   0.000000
               7          8          9
     1  C    0.000000   0.000000   0.000000
     2  C    0.000000   0.000000   0.000000
     3  C    0.000000   0.000000   0.000000
     4  C    0.000000   0.000000   0.000000
     5  H    0.000000   0.000000   0.000000
     6  H    0.000000   0.000000   0.000000
     7  H    0.898479   0.000000   0.000000
     8  H    0.000000   0.896560   0.000000
     9  S    0.000000   0.000000   6.088500
 Mulliken charges:
               1
     1  C   -0.170528
     2  C    0.009775
     3  C    0.009711
     4  C   -0.170447
     5  H    0.103447
     6  H    0.101581
     7  H    0.101521
     8  H    0.103440
     9  S   -0.088500
 Sum of Mulliken charges =   0.00000
 Mulliken charges with hydrogens summed into heavy atoms:
               1
     1  C   -0.067089
     2  C    0.111297
     3  C    0.111292
     4  C   -0.066999
     9  S   -0.088500
 Charge=              0.0000 electrons
 Dipole moment (field-independent basis, Debye):
    X=             -1.0758    Y=             -0.0005    Z=              0.0002  Tot=              1.0758
 N-N= 9.270790801499D+01 E-N=-1.530243160676D+02  KE=-1.524404850187D+01
 Leave Link  601 at Mon Apr  4 12:35:36 2016, MaxMem=    33554432 cpu:         0.0
 (Enter /home/dustin/Applications/g09/g09/l9999.exe)
 1\1\GINC-DUSTIN-DESKTOP\FOpt\RAM1\ZDO\C4H4S1\DUSTIN\04-Apr-2016\0\\#P 
 AM1(Input,Print) opt\\best\\0,1\C,0.9005630247,-0.6938917535,-0.027791
 5523\C,-0.3571040698,-1.2446300454,-0.0176391816\C,-0.3529707856,1.314
 2493705,0.0523376265\C,0.9029739521,0.7607123056,0.0115211533\H,1.8446
 4333,1.3443738653,0.0086182651\H,-0.6989977142,2.3523424336,0.08785292
 65\H,-0.7058852741,-2.2822328252,-0.0395068597\H,1.8405303675,-1.27921
 74016,-0.0622930314\S,-1.6139008307,0.0358760506,0.0426206536\\Version
 =ES64L-G09RevD.01\State=1-A\HF=-0.6897426\RMSD=4.353e-09\RMSF=1.056e-0
 4\Dipole=0.4231778,-0.0001494,-0.0084358\PG=C01 [X(C4H4S1)]\\@


 MEMORIES ARE LIKE AN ENGLISH GRAMMER LESSON -
 PRESENT TENSE, AND PAST PERFECT.
 Job cpu time:       0 days  0 hours  0 minutes  1.7 seconds.
 File lengths (MBytes):  RWF=      5 Int=      0 D2E=      0 Chk=      2 Scr=      1
 Normal termination of Gaussian 09 at Mon Apr  4 12:35:36 2016.
 Initial command:
 /home/dustin/Applications/g09/g09/l1.exe "/tmp/Gau-16101.inp" -scrdir="/tmp/"
 Entering Link 1 = /home/dustin/Applications/g09/g09/l1.exe PID=     16105.
  
 Copyright (c) 1988,1990,1992,1993,1995,1998,2003,2009,2013,
            Gaussian, Inc.  All Rights Reserved.
  
 This is part of the Gaussian(R) 09 program.  It is based on
 the Gaussian(R) 03 system (copyright 2003, Gaussian, Inc.),
 the Gaussian(R) 98 system (copyright 1998, Gaussian, Inc.),
 the Gaussian(R) 94 system (copyright 1995, Gaussian, Inc.),
 the Gaussian 92(TM) system (copyright 1992, Gaussian, Inc.),
 the Gaussian 90(TM) system (copyright 1990, Gaussian, Inc.),
 the Gaussian 88(TM) system (copyright 1988, Gaussian, Inc.),
 the Gaussian 86(TM) system (copyright 1986, Carnegie Mellon
 University), and the Gaussian 82(TM) system (copyright 1983,
 Carnegie Mellon University). Gaussian is a federally registered
 trademark of Gaussian, Inc.
  
 This software contains proprietary and confidential information,
 including trade secrets, belonging to Gaussian, Inc.
  
 This software is provided under written license and may be
 used, copied, transmitted, or stored only in accord with that
 written license.
  
 The following legend is applicable only to US Government
 contracts under FAR:
  
                    RESTRICTED RIGHTS LEGEND
  
 Use, reproduction and disclosure by the US Government is
 subject to restrictions as set forth in subparagraphs (a)
 and (c) of the Commercial Computer Software - Restricted
 Rights clause in FAR 52.227-19.
  
 Gaussian, Inc.
 340 Quinnipiac St., Bldg. 40, Wallingford CT 06492
  
  
 ---------------------------------------------------------------
 Warning -- This program may not be used in any manner that
 competes with the business of Gaussian, Inc. or will provide
 assistance to any competitor of Gaussian, Inc.  The licensee
 of this program is prohibited from giving any competitor of
 Gaussian, Inc. access to this program.  By using this program,
 the user acknowledges that Gaussian, Inc. is engaged in the
 business of creating and licensing software in the field of
 computational chemistry and represents and warrants to the
 licensee that it is not a competitor of Gaussian, Inc. and that
 it will not use this program in any manner prohibited above.
 ---------------------------------------------------------------
  

 Cite this work as:
 Gaussian 09, Revision D.01,
 M. J. Frisch, G. W. Trucks, H. B. Schlegel, G. E. Scuseria, 
 M. A. Robb, J. R. Cheeseman, G. Scalmani, V. Barone, B. Mennucci, 
 G. A. Petersson, H. Nakatsuji, M. Caricato, X. Li, H. P. Hratchian, 
 A. F. Izmaylov, J. Bloino, G. Zheng, J. L. Sonnenberg, M. Hada, 
 M. Ehara, K. Toyota, R. Fukuda, J. Hasegawa, M. Ishida, T. Nakajima, 
 Y. Honda, O. Kitao, H. Nakai, T. Vreven, J. A. Montgomery, Jr., 
 J. E. Peralta, F. Ogliaro, M. Bearpark, J. J. Heyd, E. Brothers, 
 K. N. Kudin, V. N. Staroverov, T. Keith, R. Kobayashi, J. Normand, 
 K. Raghavachari, A. Rendell, J. C. Burant, S. S. Iyengar, J. Tomasi, 
 M. Cossi, N. Rega, J. M. Millam, M. Klene, J. E. Knox, J. B. Cross, 
 V. Bakken, C. Adamo, J. Jaramillo, R. Gomperts, R. E. Stratmann, 
 O. Yazyev, A. J. Austin, R. Cammi, C. Pomelli, J. W. Ochterski, 
 R. L. Martin, K. Morokuma, V. G. Zakrzewski, G. A. Voth, 
 P. Salvador, J. J. Dannenberg, S. Dapprich, A. D. Daniels, 
 O. Farkas, J. B. Foresman, J. V. Ortiz, J. Cioslowski, 
 and D. J. Fox, Gaussian, Inc., Wallingford CT, 2013.
 
 ******************************************
 Gaussian 09:  ES64L-G09RevD.01 24-Apr-2013
                 4-Apr-2016 
 ******************************************
 %chk=best
 ----------------------------------------------------------------------
 #P AM1(Input,Print) CIS(Singlets,NStates=0) pop(full) freq geom=Checkp
 oint
 ----------------------------------------------------------------------
 1/10=4,29=2,30=1,38=1/1,3;
 2/12=2,40=1/2;
 3/5=2,14=-4,16=1,25=1,41=700000,71=2,135=100,136=1,140=1/1,2,8,3;
 4/35=1/1;
 5/5=2,35=1,38=5,98=1/2;
 8/6=1,10=90/1;
 9/15=3,42=1,48=1,49=10/14;
 10/5=4,20=4/2;
 11/6=1,8=1,12=-1,16=1,42=3/1,2,10;
 10/6=2,21=1/2,14;
 6/7=3,18=1/1;
 7/8=1,10=1,12=6,13=5,25=1,44=2/1,2,3,16;
 1/10=4,30=1/3;
 99//99;
 Leave Link    1 at Mon Apr  4 12:35:36 2016, MaxMem=           0 cpu:         0.0
 (Enter /home/dustin/Applications/g09/g09/l101.exe)
 -----
 best1
 -----
 Atom specifications unexpectedly found in input stream.
 Error termination via Lnk1e in /home/dustin/Applications/g09/g09/l101.exe at Mon Apr  4 12:35:36 2016.
 Job cpu time:       0 days  0 hours  0 minutes  0.0 seconds.
 File lengths (MBytes):  RWF=      5 Int=      0 D2E=      0 Chk=      2 Scr=      1
