 Entering Gaussian System, Link 0=g09
 Input=best.com
 Output=best.log
 Initial command:
 /opt/g09/g09/l1.exe "/opt/g09/scratch/Gau-24686.inp" -scrdir="/opt/g09/scratch/"
 Entering Link 1 = /opt/g09/g09/l1.exe PID=     24687.
  
 Copyright (c) 1988,1990,1992,1993,1995,1998,2003,2009,2013,
            Gaussian, Inc.  All Rights Reserved.
  
 This is part of the Gaussian(R) 09 program.  It is based on
 the Gaussian(R) 03 system (copyright 2003, Gaussian, Inc.),
 the Gaussian(R) 98 system (copyright 1998, Gaussian, Inc.),
 the Gaussian(R) 94 system (copyright 1995, Gaussian, Inc.),
 the Gaussian 92(TM) system (copyright 1992, Gaussian, Inc.),
 the Gaussian 90(TM) system (copyright 1990, Gaussian, Inc.),
 the Gaussian 88(TM) system (copyright 1988, Gaussian, Inc.),
 the Gaussian 86(TM) system (copyright 1986, Carnegie Mellon
 University), and the Gaussian 82(TM) system (copyright 1983,
 Carnegie Mellon University). Gaussian is a federally registered
 trademark of Gaussian, Inc.
  
 This software contains proprietary and confidential information,
 including trade secrets, belonging to Gaussian, Inc.
  
 This software is provided under written license and may be
 used, copied, transmitted, or stored only in accord with that
 written license.
  
 The following legend is applicable only to US Government
 contracts under FAR:
  
                    RESTRICTED RIGHTS LEGEND
  
 Use, reproduction and disclosure by the US Government is
 subject to restrictions as set forth in subparagraphs (a)
 and (c) of the Commercial Computer Software - Restricted
 Rights clause in FAR 52.227-19.
  
 Gaussian, Inc.
 340 Quinnipiac St., Bldg. 40, Wallingford CT 06492
  
  
 ---------------------------------------------------------------
 Warning -- This program may not be used in any manner that
 competes with the business of Gaussian, Inc. or will provide
 assistance to any competitor of Gaussian, Inc.  The licensee
 of this program is prohibited from giving any competitor of
 Gaussian, Inc. access to this program.  By using this program,
 the user acknowledges that Gaussian, Inc. is engaged in the
 business of creating and licensing software in the field of
 computational chemistry and represents and warrants to the
 licensee that it is not a competitor of Gaussian, Inc. and that
 it will not use this program in any manner prohibited above.
 ---------------------------------------------------------------
  

 Cite this work as:
 Gaussian 09, Revision D.01,
 M. J. Frisch, G. W. Trucks, H. B. Schlegel, G. E. Scuseria, 
 M. A. Robb, J. R. Cheeseman, G. Scalmani, V. Barone, B. Mennucci, 
 G. A. Petersson, H. Nakatsuji, M. Caricato, X. Li, H. P. Hratchian, 
 A. F. Izmaylov, J. Bloino, G. Zheng, J. L. Sonnenberg, M. Hada, 
 M. Ehara, K. Toyota, R. Fukuda, J. Hasegawa, M. Ishida, T. Nakajima, 
 Y. Honda, O. Kitao, H. Nakai, T. Vreven, J. A. Montgomery, Jr., 
 J. E. Peralta, F. Ogliaro, M. Bearpark, J. J. Heyd, E. Brothers, 
 K. N. Kudin, V. N. Staroverov, T. Keith, R. Kobayashi, J. Normand, 
 K. Raghavachari, A. Rendell, J. C. Burant, S. S. Iyengar, J. Tomasi, 
 M. Cossi, N. Rega, J. M. Millam, M. Klene, J. E. Knox, J. B. Cross, 
 V. Bakken, C. Adamo, J. Jaramillo, R. Gomperts, R. E. Stratmann, 
 O. Yazyev, A. J. Austin, R. Cammi, C. Pomelli, J. W. Ochterski, 
 R. L. Martin, K. Morokuma, V. G. Zakrzewski, G. A. Voth, 
 P. Salvador, J. J. Dannenberg, S. Dapprich, A. D. Daniels, 
 O. Farkas, J. B. Foresman, J. V. Ortiz, J. Cioslowski, 
 and D. J. Fox, Gaussian, Inc., Wallingford CT, 2013.
 
 ******************************************
 Gaussian 09:  ES64L-G09RevD.01 24-Apr-2013
                25-Mar-2016 
 ******************************************
 %Chk=freq
 -----------------------
 #P AM1(Input,Print) opt
 -----------------------
 1/14=-1,18=20,19=15,26=1,38=1/1,3;
 2/9=110,12=2,17=6,18=5,40=1/2;
 3/5=2,16=1,25=1,41=700000,71=1,135=100,136=1/1,2,3;
 4/35=1/1;
 5/5=2,35=1,38=5/2;
 6/7=2,8=2,9=2,10=2,28=1/1;
 7//1,2,3,16;
 1/14=-1,18=20,19=15,26=1/3(2);
 2/9=110/2;
 99//99;
 2/9=110/2;
 3/5=2,16=1,25=1,41=700000,71=1,135=20,136=1/1,2,3;
 4/5=5,16=3,35=1/1;
 5/5=2,35=1,38=5/2;
 7//1,2,3,16;
 1/14=-1,18=20,19=15,26=1/3(-5);
 2/9=110/2;
 6/7=2,8=2,9=2,10=2,19=2,28=1/1;
 99/9=1/99;
 Leave Link    1 at Fri Mar 25 08:42:06 2016, MaxMem=           0 cpu:         0.0
 (Enter /opt/g09/g09/l101.exe)
 ----
 best
 ----
 Symbolic Z-matrix:
 Charge =  0 Multiplicity = 1
 6                     0.86981  -0.70151   0.05612 
 6                    -0.39628  -1.23091  -0.01553 
 6                    -0.32791   1.34792  -0.00644 
 6                     0.89455   0.71691  -0.02363 
 1                     1.74488   1.30355   0.04042 
 1                    -0.54054   2.3247    0.2547 
 1                    -0.62835  -2.28662   0.12117 
 1                     1.79231  -1.26953  -0.05301 
 16                   -1.61652   0.03721  -0.11941 
 
 NAtoms=      9 NQM=        9 NQMF=       0 NMMI=      0 NMMIF=      0
                NMic=       0 NMicF=      0.
                    Isotopes and Nuclear Properties:
 (Nuclear quadrupole moments (NQMom) in fm**2, nuclear magnetic moments (NMagM)
  in nuclear magnetons)

  Atom         1           2           3           4           5           6           7           8           9
 IAtWgt=          12          12          12          12           1           1           1           1          32
 AtmWgt=  12.0000000  12.0000000  12.0000000  12.0000000   1.0078250   1.0078250   1.0078250   1.0078250  31.9720718
 NucSpn=           0           0           0           0           1           1           1           1           0
 AtZEff=   0.0000000   0.0000000   0.0000000   0.0000000   0.0000000   0.0000000   0.0000000   0.0000000   0.0000000
 NQMom=    0.0000000   0.0000000   0.0000000   0.0000000   0.0000000   0.0000000   0.0000000   0.0000000   0.0000000
 NMagM=    0.0000000   0.0000000   0.0000000   0.0000000   2.7928460   2.7928460   2.7928460   2.7928460   0.0000000
 AtZNuc=   6.0000000   6.0000000   6.0000000   6.0000000   1.0000000   1.0000000   1.0000000   1.0000000  16.0000000
 Leave Link  101 at Fri Mar 25 08:42:06 2016, MaxMem=    33554432 cpu:         0.0
 (Enter /opt/g09/g09/l103.exe)

 GradGradGradGradGradGradGradGradGradGradGradGradGradGradGradGradGradGrad
 Berny optimization.
 Initialization pass.
                           ----------------------------
                           !    Initial Parameters    !
                           ! (Angstroms and Degrees)  !
 --------------------------                            --------------------------
 ! Name  Definition              Value          Derivative Info.                !
 --------------------------------------------------------------------------------
 ! R1    R(1,2)                  1.3742         estimate D2E/DX2                !
 ! R2    R(1,4)                  1.4209         estimate D2E/DX2                !
 ! R3    R(1,8)                  1.0888         estimate D2E/DX2                !
 ! R4    R(2,7)                  1.0895         estimate D2E/DX2                !
 ! R5    R(2,9)                  1.7629         estimate D2E/DX2                !
 ! R6    R(3,4)                  1.3758         estimate D2E/DX2                !
 ! R7    R(3,6)                  1.0332         estimate D2E/DX2                !
 ! R8    R(3,9)                  1.8415         estimate D2E/DX2                !
 ! R9    R(4,5)                  1.035          estimate D2E/DX2                !
 ! A1    A(2,1,4)              113.4343         estimate D2E/DX2                !
 ! A2    A(2,1,8)              125.0572         estimate D2E/DX2                !
 ! A3    A(4,1,8)              120.0263         estimate D2E/DX2                !
 ! A4    A(1,2,7)              124.2633         estimate D2E/DX2                !
 ! A5    A(1,2,9)              111.3261         estimate D2E/DX2                !
 ! A6    A(7,2,9)              123.8459         estimate D2E/DX2                !
 ! A7    A(4,3,6)              128.2882         estimate D2E/DX2                !
 ! A8    A(4,3,9)              107.1304         estimate D2E/DX2                !
 ! A9    A(6,3,9)              122.9818         estimate D2E/DX2                !
 ! A10   A(1,4,3)              116.2111         estimate D2E/DX2                !
 ! A11   A(1,4,5)              125.2139         estimate D2E/DX2                !
 ! A12   A(3,4,5)              117.9854         estimate D2E/DX2                !
 ! A13   A(2,9,3)               91.3763         estimate D2E/DX2                !
 ! D1    D(4,1,2,7)           -174.0006         estimate D2E/DX2                !
 ! D2    D(4,1,2,9)             -2.3494         estimate D2E/DX2                !
 ! D3    D(8,1,2,7)             19.9735         estimate D2E/DX2                !
 ! D4    D(8,1,2,9)           -168.3753         estimate D2E/DX2                !
 ! D5    D(2,1,4,3)              7.0474         estimate D2E/DX2                !
 ! D6    D(2,1,4,5)            178.0276         estimate D2E/DX2                !
 ! D7    D(8,1,4,3)            173.8496         estimate D2E/DX2                !
 ! D8    D(8,1,4,5)            -15.1702         estimate D2E/DX2                !
 ! D9    D(1,2,9,3)             -1.7134         estimate D2E/DX2                !
 ! D10   D(7,2,9,3)            169.9791         estimate D2E/DX2                !
 ! D11   D(6,3,4,1)            157.8693         estimate D2E/DX2                !
 ! D12   D(6,3,4,5)            -13.7906         estimate D2E/DX2                !
 ! D13   D(9,3,4,1)             -7.842          estimate D2E/DX2                !
 ! D14   D(9,3,4,5)           -179.502          estimate D2E/DX2                !
 ! D15   D(4,3,9,2)              5.3065         estimate D2E/DX2                !
 ! D16   D(6,3,9,2)           -161.3413         estimate D2E/DX2                !
 --------------------------------------------------------------------------------
 Trust Radius=3.00D-01 FncErr=1.00D-07 GrdErr=1.00D-07
 Number of steps in this run=     48 maximum allowed number of steps=    100.
 GradGradGradGradGradGradGradGradGradGradGradGradGradGradGradGradGradGrad

 Leave Link  103 at Fri Mar 25 08:42:06 2016, MaxMem=    33554432 cpu:         0.0
 (Enter /opt/g09/g09/l202.exe)
                          Input orientation:                          
 ---------------------------------------------------------------------
 Center     Atomic      Atomic             Coordinates (Angstroms)
 Number     Number       Type             X           Y           Z
 ---------------------------------------------------------------------
      1          6           0        0.869808   -0.701506    0.056117
      2          6           0       -0.396279   -1.230906   -0.015526
      3          6           0       -0.327906    1.347920   -0.006442
      4          6           0        0.894548    0.716912   -0.023630
      5          1           0        1.744882    1.303552    0.040418
      6          1           0       -0.540542    2.324699    0.254702
      7          1           0       -0.628351   -2.286621    0.121165
      8          1           0        1.792311   -1.269526   -0.053007
      9         16           0       -1.616521    0.037214   -0.119411
 ---------------------------------------------------------------------
                    Distance matrix (angstroms):
                    1          2          3          4          5
     1  C    0.000000
     2  C    1.374181   0.000000
     3  C    2.374569   2.579748   0.000000
     4  C    1.420873   2.336727   1.375813   0.000000
     5  H    2.187752   3.318309   2.073792   1.035044   0.000000
     6  H    3.344614   3.568776   1.033203   2.173000   2.512334
     7  H    2.182041   1.089530   3.649170   3.370667   4.304428
     8  H    1.088837   2.189252   3.368755   2.180087   2.575210
     9  S    2.599683   1.762927   1.841532   2.603196   3.595579
                    6          7          8          9
     6  H    0.000000
     7  H    4.614089   0.000000
     8  H    4.295968   2.631430   0.000000
     9  S    2.555441   2.536645   3.651317   0.000000
 Stoichiometry    C4H4S
 Framework group  C1[X(C4H4S)]
 Deg. of freedom    21
 Full point group                 C1      NOp   1
 Largest Abelian subgroup         C1      NOp   1
 Largest concise Abelian subgroup C1      NOp   1
                         Standard orientation:                         
 ---------------------------------------------------------------------
 Center     Atomic      Atomic             Coordinates (Angstroms)
 Number     Number       Type             X           Y           Z
 ---------------------------------------------------------------------
      1          6           0       -1.250077    0.759411    0.032736
      2          6           0        0.028164    1.263760    0.022383
      3          6           0       -0.091357   -1.313217    0.020074
      4          6           0       -1.298976   -0.658055   -0.052578
      5          1           0       -2.162776   -1.227860   -0.030443
      6          1           0        0.089464   -2.294602    0.287833
      7          1           0        0.274299    2.314357    0.173177
      8          1           0       -2.155049    1.345855   -0.117845
      9         16           0        1.226721   -0.028072   -0.028026
 ---------------------------------------------------------------------
 Rotational constants (GHZ):      7.6274492      5.2246310      3.1085663
 Leave Link  202 at Fri Mar 25 08:42:06 2016, MaxMem=    33554432 cpu:         0.0
 (Enter /opt/g09/g09/l301.exe)

 Semi-emprical parameters in input format:
 Method=8 CoreType=1 PeptideFC=0.0119657245 RIJScale=0.5881090766
 ****
 H       
 PQN=1 NValence=1 F0ss=0.4996849932 ZetaOverlap=1.2185846149 U=-0.4088880125
 Beta=-0.2068422097 CoreKO=1.0643649684 KON=0,0,0,1.0237107472 KON=1,0,1,1.1052197168
 KON=0,1,1,1.0743688104 KON=2,1,1,1.1554783525 EISol=-0.4188110042 EHeat=0.0830298228
 Alpha=1.5493340673
 GCore=0.0085277107,1.4794910116,2.1515238539
 GCore=0.0003769288,1.3877843938,3.5811456638
 GCore=-0.0013463201,0.5568132691,3.7487552103
 ****
 C       
 PQN=2,2 NValence=4 F0ss=0.4780174594 F0sp=0.4253861850 F0pp=0.3899224814 F2pp=0.1791675548
 G1sp=0.2828549662
 ZetaOverlap=1.8086650000,1.6851160000
 U=-1.8861624543,-1.4557965594
 Beta=-0.5775444233,-0.2856353388 DDN=0,1,0.7759488616 DDN=1,1,0.7135325066
 CoreKO=1.1124284736 KON=0,0,0,1.0602068437 KON=1,0,1,0.6606655467 KON=0,1,1,1.1647035227
 KON=2,1,1,0.8116616187 EISol=-4.4398989268 EHeat=0.2723305520 Alpha=1.4014062429
 DipHyp=1.5518084412
 GCore=0.0007333173,1.5360476860,2.9241613185
 GCore=0.0031935650,1.4288890753,3.6129500822
 GCore=-0.0014914263,1.4931731926,3.6786333691
 GCore=-0.0000806621,1.2467674819,5.9443816034
 ****
 S       
 PQN=3,3 NValence=6 F0ss=0.3732165166 F0sp=0.2941468075 F0pp=0.3336562384 F2pp=0.3943779604
 G1sp=0.2651707809
 ZetaOverlap=2.3746741232,1.3573807383,1.0584769110
 U=-2.1612538610,-1.7903186861
 Beta=-0.1489128553,-0.2905136336 DDN=0,1,0.9439229619 DDN=1,1,1.0619836885
 CoreKO=1.1543033468 KON=0,0,0,1.0651651447 KON=1,0,1,0.7848899098 KON=0,1,1,1.1207989137
 KON=2,1,1,0.8042674612 EISol=-7.0460287497 EHeat=0.1058151363 Alpha=1.3301620678
 DipHyp=1.8877373144
 GCore=-0.0343544745,1.2618425871,1.4242740936
 GCore=-0.0008333864,1.6609295365,2.9077463112
 GCore=0.0008596462,3.5843376148,3.5762507560
 ****
 
 Standard basis: VSTO-6G (5D, 7F)
 Ernie: Thresh=  0.10000D-02 Tol=  0.10000D-05 Strict=F.
  NNHCO=     0 NNPyr=     0 NCTC=     0               EPep=         0.000000000
    EC=        62.901545778  ECS=         1.585474297   EG=         0.146899634
   EHC=         0.000000000  EAt=       -26.480868474  AtH=         1.527256636
 EPDDG=         0.000000000  ECC=        64.633919709 EAtT=        28.008125109
 There are    24 symmetry adapted cartesian basis functions of A   symmetry.
 There are    24 symmetry adapted basis functions of A   symmetry.
    24 basis functions,   144 primitive gaussians,    24 cartesian basis functions
    13 alpha electrons       13 beta electrons
       nuclear repulsion energy        92.6420448184 Hartrees.
 IExCor=    0 DFT=F Ex=HF Corr=None ExCW=0 ScaHFX=  1.000000
 ScaDFX=  1.000000  1.000000  1.000000  1.000000 ScalE2=  1.000000  1.000000
 IRadAn=      0 IRanWt=     -1 IRanGd=            0 ICorTp=0 IEmpDi=  4
 Integral buffers will be    131072 words long.
 Regular integral format.
 Two-electron integral symmetry is turned off.
 Leave Link  301 at Fri Mar 25 08:42:06 2016, MaxMem=    33554432 cpu:         0.0
 (Enter /opt/g09/g09/l302.exe)
 Do NDO integrals.
 NPDir=0 NMtPBC=     1 NCelOv=     1 NCel=       1 NClECP=     1 NCelD=      1
         NCelK=      1 NCelE2=     1 NClLst=     1 CellRange=     0.0.
 One-electron integrals computed using PRISM.
 NBasis=    24 RedAO= F EigKep=  0.00D+00  NBF=    24
 NBsUse=    24 1.00D-04 EigRej=  0.00D+00 NBFU=    24
 Leave Link  302 at Fri Mar 25 08:42:06 2016, MaxMem=    33554432 cpu:         0.0
 (Enter /opt/g09/g09/l303.exe)
 DipDrv:  MaxL=1.
 Leave Link  303 at Fri Mar 25 08:42:06 2016, MaxMem=    33554432 cpu:         0.0
 (Enter /opt/g09/g09/l401.exe)
 Simple Huckel Guess.
 JPrj=0 DoOrth=F DoCkMO=F.
 Leave Link  401 at Fri Mar 25 08:42:06 2016, MaxMem=    33554432 cpu:         0.0
 (Enter /opt/g09/g09/l502.exe)
 Closed shell SCF:
 Using DIIS extrapolation, IDIIS=  1040.
 Overlap will be assumed to be unity.
 Two-electron integral symmetry not used.
 Keep J ints in memory in canonical form, NReq=888082.
 IVT=       79475 IEndB=       79475 NGot=    33554432 MDV=    33473473
 LenX=    33473473 LenY=    33472456
 Requested convergence on RMS density matrix=1.00D-08 within 128 cycles.
 Requested convergence on MAX density matrix=1.00D-06.
 Requested convergence on             energy=1.00D-06.
 No special actions if energy rises.
 FoFCou: FMM=F IPFlag=           0 FMFlag=           0 FMFlg1=           0
         NFxFlg=           0 DoJE=F BraDBF=F KetDBF=F FulRan=T
         wScrn=  0.000000 ICntrl=     600 IOpCl=  2 I1Cent=           0 NGrid=           0
         NMat0=    1 NMatS0=     54 NMatT0=    0 NMatD0=    1 NMtDS0=    0 NMtDT0=    0
 Symmetry not used in FoFCou.

 Cycle   1  Pass 1  IDiag  1:
 E= 0.452542000077798    
 DIIS: error= 5.67D-02 at cycle   1 NSaved=   1.
 NSaved= 1 IEnMin= 1 EnMin= 0.452542000077798     IErMin= 1 ErrMin= 5.67D-02
 ErrMax= 5.67D-02  0.00D+00 EMaxC= 1.00D-01 BMatC= 8.15D-02 BMatP= 8.15D-02
 IDIUse=3 WtCom= 4.33D-01 WtEn= 5.67D-01
 Coeff-Com:  0.100D+01
 Coeff-En:   0.100D+01
 Coeff:      0.100D+01
 GapD=    2.000 DampG=2.000 DampE=0.500 DampFc=1.0000 IDamp=-1.
 RMSDP=2.02D-02 MaxDP=1.73D-01              OVMax= 0.00D+00

 Cycle   2  Pass 1  IDiag  1:
 E= 0.217065610929964     Delta-E=       -0.235476389148 Rises=F Damp=F
 DIIS: error= 1.49D-02 at cycle   2 NSaved=   2.
 NSaved= 2 IEnMin= 2 EnMin= 0.217065610929964     IErMin= 2 ErrMin= 1.49D-02
 ErrMax= 1.49D-02  0.00D+00 EMaxC= 1.00D-01 BMatC= 5.18D-03 BMatP= 8.15D-02
 IDIUse=3 WtCom= 8.51D-01 WtEn= 1.49D-01
 Coeff-Com: -0.302D+00 0.130D+01
 Coeff-En:   0.000D+00 0.100D+01
 Coeff:     -0.257D+00 0.126D+01
 RMSDP=6.38D-03 MaxDP=4.12D-02 DE=-2.35D-01 OVMax= 0.00D+00

 Cycle   3  Pass 1  IDiag  3:
 E= 0.200573296901467     Delta-E=       -0.016492314028 Rises=F Damp=F
 DIIS: error= 1.84D-03 at cycle   3 NSaved=   3.
 NSaved= 3 IEnMin= 3 EnMin= 0.200573296901467     IErMin= 3 ErrMin= 1.84D-03
 ErrMax= 1.84D-03  0.00D+00 EMaxC= 1.00D-01 BMatC= 1.09D-04 BMatP= 5.18D-03
 IDIUse=3 WtCom= 9.82D-01 WtEn= 1.84D-02
 Coeff-Com:  0.103D+00-0.526D+00 0.142D+01
 Coeff-En:   0.000D+00 0.000D+00 0.100D+01
 Coeff:      0.101D+00-0.516D+00 0.142D+01
 Gap=     0.343 Goal=   None    Shift=    0.000
 RMSDP=1.70D-03 MaxDP=1.40D-02 DE=-1.65D-02 OVMax= 1.70D-02

 Cycle   4  Pass 1  IDiag  3:
 E= 0.199906273521137     Delta-E=       -0.000667023380 Rises=F Damp=F
 DIIS: error= 5.61D-04 at cycle   4 NSaved=   4.
 NSaved= 4 IEnMin= 4 EnMin= 0.199906273521137     IErMin= 4 ErrMin= 5.61D-04
 ErrMax= 5.61D-04  0.00D+00 EMaxC= 1.00D-01 BMatC= 6.27D-06 BMatP= 1.09D-04
 IDIUse=3 WtCom= 9.94D-01 WtEn= 5.61D-03
 Coeff-Com: -0.285D-01 0.135D+00-0.434D+00 0.133D+01
 Coeff-En:   0.000D+00 0.000D+00 0.000D+00 0.100D+01
 Coeff:     -0.283D-01 0.134D+00-0.432D+00 0.133D+01
 Gap=     0.344 Goal=   None    Shift=    0.000
 RMSDP=4.86D-04 MaxDP=3.91D-03 DE=-6.67D-04 OVMax= 5.24D-03

 Cycle   5  Pass 1  IDiag  3:
 E= 0.199851564814125     Delta-E=       -0.000054708707 Rises=F Damp=F
 DIIS: error= 2.74D-04 at cycle   5 NSaved=   5.
 NSaved= 5 IEnMin= 5 EnMin= 0.199851564814125     IErMin= 5 ErrMin= 2.74D-04
 ErrMax= 2.74D-04  0.00D+00 EMaxC= 1.00D-01 BMatC= 1.02D-06 BMatP= 6.27D-06
 IDIUse=3 WtCom= 9.97D-01 WtEn= 2.74D-03
 Coeff-Com: -0.496D-02 0.336D-01-0.884D-01-0.369D+00 0.143D+01
 Coeff-En:   0.000D+00 0.000D+00 0.000D+00 0.000D+00 0.100D+01
 Coeff:     -0.495D-02 0.335D-01-0.881D-01-0.368D+00 0.143D+01
 Gap=     0.344 Goal=   None    Shift=    0.000
 RMSDP=2.87D-04 MaxDP=2.55D-03 DE=-5.47D-05 OVMax= 3.32D-03

 Cycle   6  Pass 1  IDiag  3:
 E= 0.199839612382888     Delta-E=       -0.000011952431 Rises=F Damp=F
 DIIS: error= 7.74D-05 at cycle   6 NSaved=   6.
 NSaved= 6 IEnMin= 6 EnMin= 0.199839612382888     IErMin= 6 ErrMin= 7.74D-05
 ErrMax= 7.74D-05  0.00D+00 EMaxC= 1.00D-01 BMatC= 9.80D-08 BMatP= 1.02D-06
 IDIUse=1 WtCom= 1.00D+00 WtEn= 0.00D+00
 Coeff-Com:  0.182D-02-0.144D-01 0.448D-01 0.193D+00-0.967D+00 0.174D+01
 Coeff:      0.182D-02-0.144D-01 0.448D-01 0.193D+00-0.967D+00 0.174D+01
 Gap=     0.344 Goal=   None    Shift=    0.000
 RMSDP=9.92D-05 MaxDP=8.91D-04 DE=-1.20D-05 OVMax= 1.08D-03

 Cycle   7  Pass 1  IDiag  3:
 E= 0.199838538509511     Delta-E=       -0.000001073873 Rises=F Damp=F
 DIIS: error= 7.17D-06 at cycle   7 NSaved=   7.
 NSaved= 7 IEnMin= 7 EnMin= 0.199838538509511     IErMin= 7 ErrMin= 7.17D-06
 ErrMax= 7.17D-06  0.00D+00 EMaxC= 1.00D-01 BMatC= 2.79D-09 BMatP= 9.80D-08
 IDIUse=1 WtCom= 1.00D+00 WtEn= 0.00D+00
 Coeff-Com: -0.534D-03 0.441D-02-0.133D-01-0.732D-01 0.346D+00-0.681D+00
 Coeff-Com:  0.142D+01
 Coeff:     -0.534D-03 0.441D-02-0.133D-01-0.732D-01 0.346D+00-0.681D+00
 Coeff:      0.142D+01
 Gap=     0.344 Goal=   None    Shift=    0.000
 RMSDP=1.13D-05 MaxDP=7.52D-05 DE=-1.07D-06 OVMax= 1.01D-04

 Cycle   8  Pass 1  IDiag  3:
 E= 0.199838516918405     Delta-E=       -0.000000021591 Rises=F Damp=F
 DIIS: error= 2.33D-06 at cycle   8 NSaved=   8.
 NSaved= 8 IEnMin= 8 EnMin= 0.199838516918405     IErMin= 8 ErrMin= 2.33D-06
 ErrMax= 2.33D-06  0.00D+00 EMaxC= 1.00D-01 BMatC= 2.30D-10 BMatP= 2.79D-09
 IDIUse=1 WtCom= 1.00D+00 WtEn= 0.00D+00
 Coeff-Com:  0.152D-03-0.105D-02 0.272D-02 0.177D-01-0.753D-01 0.148D+00
 Coeff-Com: -0.540D+00 0.145D+01
 Coeff:      0.152D-03-0.105D-02 0.272D-02 0.177D-01-0.753D-01 0.148D+00
 Coeff:     -0.540D+00 0.145D+01
 Gap=     0.344 Goal=   None    Shift=    0.000
 RMSDP=3.05D-06 MaxDP=1.77D-05 DE=-2.16D-08 OVMax= 2.67D-05

 Cycle   9  Pass 1  IDiag  3:
 E= 0.199838515199062     Delta-E=       -0.000000001719 Rises=F Damp=F
 DIIS: error= 6.36D-07 at cycle   9 NSaved=   9.
 NSaved= 9 IEnMin= 9 EnMin= 0.199838515199062     IErMin= 9 ErrMin= 6.36D-07
 ErrMax= 6.36D-07  0.00D+00 EMaxC= 1.00D-01 BMatC= 1.44D-11 BMatP= 2.30D-10
 IDIUse=1 WtCom= 1.00D+00 WtEn= 0.00D+00
 Coeff-Com:  0.922D-05-0.845D-04 0.435D-03-0.116D-02-0.757D-03 0.345D-02
 Coeff-Com:  0.794D-01-0.482D+00 0.140D+01
 Coeff:      0.922D-05-0.845D-04 0.435D-03-0.116D-02-0.757D-03 0.345D-02
 Coeff:      0.794D-01-0.482D+00 0.140D+01
 Gap=     0.344 Goal=   None    Shift=    0.000
 RMSDP=7.86D-07 MaxDP=5.92D-06 DE=-1.72D-09 OVMax= 8.06D-06

 Cycle  10  Pass 1  IDiag  3:
 E= 0.199838515081623     Delta-E=       -0.000000000117 Rises=F Damp=F
 DIIS: error= 1.96D-07 at cycle  10 NSaved=  10.
 NSaved=10 IEnMin=10 EnMin= 0.199838515081623     IErMin=10 ErrMin= 1.96D-07
 ErrMax= 1.96D-07  0.00D+00 EMaxC= 1.00D-01 BMatC= 1.27D-12 BMatP= 1.44D-11
 IDIUse=1 WtCom= 1.00D+00 WtEn= 0.00D+00
 Coeff-Com: -0.203D-05 0.438D-04-0.244D-03-0.580D-04 0.311D-02-0.729D-02
 Coeff-Com: -0.263D-01 0.227D+00-0.879D+00 0.168D+01
 Coeff:     -0.203D-05 0.438D-04-0.244D-03-0.580D-04 0.311D-02-0.729D-02
 Coeff:     -0.263D-01 0.227D+00-0.879D+00 0.168D+01
 Gap=     0.344 Goal=   None    Shift=    0.000
 RMSDP=2.86D-07 MaxDP=2.51D-06 DE=-1.17D-10 OVMax= 3.18D-06

 Cycle  11  Pass 1  IDiag  3:
 E= 0.199838515069118     Delta-E=       -0.000000000013 Rises=F Damp=F
 DIIS: error= 5.28D-08 at cycle  11 NSaved=  11.
 NSaved=11 IEnMin=11 EnMin= 0.199838515069118     IErMin=11 ErrMin= 5.28D-08
 ErrMax= 5.28D-08  0.00D+00 EMaxC= 1.00D-01 BMatC= 9.48D-14 BMatP= 1.27D-12
 IDIUse=1 WtCom= 1.00D+00 WtEn= 0.00D+00
 Coeff-Com: -0.915D-06-0.668D-05 0.634D-04-0.145D-04-0.893D-03 0.223D-02
 Coeff-Com:  0.903D-02-0.765D-01 0.319D+00-0.801D+00 0.155D+01
 Coeff:     -0.915D-06-0.668D-05 0.634D-04-0.145D-04-0.893D-03 0.223D-02
 Coeff:      0.903D-02-0.765D-01 0.319D+00-0.801D+00 0.155D+01
 Gap=     0.344 Goal=   None    Shift=    0.000
 RMSDP=8.12D-08 MaxDP=7.41D-07 DE=-1.25D-11 OVMax= 9.96D-07

 Cycle  12  Pass 1  IDiag  3:
 E= 0.199838515068038     Delta-E=       -0.000000000001 Rises=F Damp=F
 DIIS: error= 1.44D-08 at cycle  12 NSaved=  12.
 NSaved=12 IEnMin=12 EnMin= 0.199838515068038     IErMin=12 ErrMin= 1.44D-08
 ErrMax= 1.44D-08  0.00D+00 EMaxC= 1.00D-01 BMatC= 8.33D-15 BMatP= 9.48D-14
 IDIUse=1 WtCom= 1.00D+00 WtEn= 0.00D+00
 Coeff-Com:  0.274D-06-0.281D-05 0.115D-04 0.229D-04-0.187D-03 0.367D-03
 Coeff-Com:  0.100D-02-0.941D-02 0.312D-01-0.225D-01-0.307D+00 0.131D+01
 Coeff:      0.274D-06-0.281D-05 0.115D-04 0.229D-04-0.187D-03 0.367D-03
 Coeff:      0.100D-02-0.941D-02 0.312D-01-0.225D-01-0.307D+00 0.131D+01
 Gap=     0.344 Goal=   None    Shift=    0.000
 RMSDP=2.29D-08 MaxDP=1.73D-07 DE=-1.08D-12 OVMax= 2.34D-07

 Cycle  13  Pass 1  IDiag  3:
 E= 0.199838515068194     Delta-E=        0.000000000000 Rises=F Damp=F
 DIIS: error= 3.22D-09 at cycle  13 NSaved=  13.
 NSaved=13 IEnMin=12 EnMin= 0.199838515068038     IErMin=13 ErrMin= 3.22D-09
 ErrMax= 3.22D-09  0.00D+00 EMaxC= 1.00D-01 BMatC= 7.05D-16 BMatP= 8.33D-15
 IDIUse=1 WtCom= 1.00D+00 WtEn= 0.00D+00
 Coeff-Com: -0.159D-06 0.228D-05-0.114D-04-0.554D-05 0.145D-03-0.316D-03
 Coeff-Com: -0.125D-02 0.104D-01-0.394D-01 0.784D-01-0.159D-01-0.503D+00
 Coeff-Com:  0.147D+01
 Coeff:     -0.159D-06 0.228D-05-0.114D-04-0.554D-05 0.145D-03-0.316D-03
 Coeff:     -0.125D-02 0.104D-01-0.394D-01 0.784D-01-0.159D-01-0.503D+00
 Coeff:      0.147D+01
 Gap=     0.344 Goal=   None    Shift=    0.000
 RMSDP=6.52D-09 MaxDP=4.08D-08 DE= 1.56D-13 OVMax= 6.91D-08

 Cycle  14  Pass 2  IDiag  1:
 SCF Done:  E(RAM1) =  0.199838515068     A.U. after   14 cycles
            NFock= 13  Conv=0.65D-08     -V/T= 1.0140
 KE=-1.431075024443D+01 PE=-1.535917604747D+02 EE= 7.546030441584D+01
 Leave Link  502 at Fri Mar 25 08:42:06 2016, MaxMem=    33554432 cpu:         0.0
 (Enter /opt/g09/g09/l601.exe)
 Copying SCF densities to generalized density rwf, IOpCl= 0 IROHF=0.

 **********************************************************************

            Population analysis using the SCF density.

 **********************************************************************

 Orbital symmetries:
       Occupied  (A) (A) (A) (A) (A) (A) (A) (A) (A) (A) (A) (A)
                 (A)
       Virtual   (A) (A) (A) (A) (A) (A) (A) (A) (A) (A) (A)
 The electronic state is 1-A.
 Alpha  occ. eigenvalues --   -1.38407  -1.09821  -0.92758  -0.76315  -0.72365
 Alpha  occ. eigenvalues --   -0.61634  -0.50160  -0.48465  -0.47714  -0.44915
 Alpha  occ. eigenvalues --   -0.42093  -0.32652  -0.31796
 Alpha virt. eigenvalues --    0.02609   0.04062   0.06632   0.08681   0.17215
 Alpha virt. eigenvalues --    0.17981   0.19358   0.19841   0.22063   0.22695
 Alpha virt. eigenvalues --    0.22987
          Condensed to atoms (all electrons):
               1          2          3          4          5          6
     1  C    4.137415   0.000000   0.000000   0.000000   0.000000   0.000000
     2  C    0.000000   4.134831   0.000000   0.000000   0.000000   0.000000
     3  C    0.000000   0.000000   4.125062   0.000000   0.000000   0.000000
     4  C    0.000000   0.000000   0.000000   4.121251   0.000000   0.000000
     5  H    0.000000   0.000000   0.000000   0.000000   0.912136   0.000000
     6  H    0.000000   0.000000   0.000000   0.000000   0.000000   0.893690
     7  H    0.000000   0.000000   0.000000   0.000000   0.000000   0.000000
     8  H    0.000000   0.000000   0.000000   0.000000   0.000000   0.000000
     9  S    0.000000   0.000000   0.000000   0.000000   0.000000   0.000000
               7          8          9
     1  C    0.000000   0.000000   0.000000
     2  C    0.000000   0.000000   0.000000
     3  C    0.000000   0.000000   0.000000
     4  C    0.000000   0.000000   0.000000
     5  H    0.000000   0.000000   0.000000
     6  H    0.000000   0.000000   0.000000
     7  H    0.894313   0.000000   0.000000
     8  H    0.000000   0.899699   0.000000
     9  S    0.000000   0.000000   5.881603
 Mulliken charges:
               1
     1  C   -0.137415
     2  C   -0.134831
     3  C   -0.125062
     4  C   -0.121251
     5  H    0.087864
     6  H    0.106310
     7  H    0.105687
     8  H    0.100301
     9  S    0.118397
 Sum of Mulliken charges =   0.00000
 Mulliken charges with hydrogens summed into heavy atoms:
               1
     1  C   -0.037115
     2  C   -0.029144
     3  C   -0.018752
     4  C   -0.033386
     9  S    0.118397
 Charge=              0.0000 electrons
 Dipole moment (field-independent basis, Debye):
    X=             -0.1439    Y=             -0.0021    Z=              0.1807  Tot=              0.2311
 N-N= 9.264204481839D+01 E-N=-1.535917604441D+02  KE=-1.431075024443D+01
 Leave Link  601 at Fri Mar 25 08:42:06 2016, MaxMem=    33554432 cpu:         0.0
 (Enter /opt/g09/g09/l701.exe)
 Compute integral first derivatives.
 ... and contract with generalized density number  0.
 Leave Link  701 at Fri Mar 25 08:42:06 2016, MaxMem=    33554432 cpu:         0.0
 (Enter /opt/g09/g09/l702.exe)
 L702 exits ... SP integral derivatives will be done elsewhere.
 Leave Link  702 at Fri Mar 25 08:42:06 2016, MaxMem=    33554432 cpu:         0.0
 (Enter /opt/g09/g09/l703.exe)
 Compute integral first derivatives, UseDBF=F ICtDFT=           0.
 Integral derivatives from FoFJK, PRISM(SPDF).
 Calling FoFJK, ICntrl=      2127 FMM=F ISym2X=0 I1Cent= 0 IOpClX= 0 NMat=1 NMatS=1 NMatT=0.
 FoFJK:  IHMeth= 8 ICntrl=    2127 DoSepK=F KAlg= 0 I1Cent=   0 FoldK=F
 IRaf=         0 NMat=   1 IRICut=       1 DoRegI=T DoRafI=F ISym2E= 0.
 FoFCou: FMM=F IPFlag=           0 FMFlag=      100000 FMFlg1=         800
         NFxFlg=           0 DoJE=F BraDBF=F KetDBF=F FulRan=T
         wScrn=  0.000000 ICntrl=    2127 IOpCl=  0 I1Cent=           0 NGrid=           0
         NMat0=    1 NMatS0=      1 NMatT0=    0 NMatD0=    1 NMtDS0=    0 NMtDT0=    0
 Symmetry not used in FoFCou.
 Leave Link  703 at Fri Mar 25 08:42:06 2016, MaxMem=    33554432 cpu:         0.0
 (Enter /opt/g09/g09/l716.exe)
 Dipole        =-5.66340321D-02-8.12729601D-04 7.11120464D-02
 ***** Axes restored to original set *****
 -------------------------------------------------------------------
 Center     Atomic                   Forces (Hartrees/Bohr)
 Number     Number              X              Y              Z
 -------------------------------------------------------------------
      1        6          -0.008277497   -0.010496554   -0.027614379
      2        6           0.023214316   -0.013373042    0.013724601
      3        6           0.012281231   -0.053877049   -0.000817988
      4        6          -0.040330468    0.010248411    0.013546742
      5        1           0.039758500    0.017201019    0.000189769
      6        1          -0.008474356    0.033551326   -0.003436790
      7        1          -0.001955837    0.004494336   -0.006791932
      8        1          -0.000205541   -0.003260818    0.008772266
      9       16          -0.016010349    0.015512370    0.002427711
 -------------------------------------------------------------------
 Cartesian Forces:  Max     0.053877049 RMS     0.019779609
 Leave Link  716 at Fri Mar 25 08:42:06 2016, MaxMem=    33554432 cpu:         0.0
 (Enter /opt/g09/g09/l103.exe)

 GradGradGradGradGradGradGradGradGradGradGradGradGradGradGradGradGradGrad
 Berny optimization.
 FormGI is forming the generalized inverse of G from B-inverse, IUseBI=4.
 Internal  Forces:  Max     0.042424240 RMS     0.010401183
 Search for a local minimum.
 Step number   1 out of a maximum of   48
 All quantities printed in internal units (Hartrees-Bohrs-Radians)
 RMS Force = .10401D-01 SwitMx=.10000D-02 MixMth= 1
 Mixed Optimization -- RFO/linear search
 Second derivative matrix not updated -- first step.
 ITU=  0
     Eigenvalues ---    0.01316   0.01816   0.02003   0.02090   0.02160
     Eigenvalues ---    0.02309   0.15394   0.15482   0.15829   0.15853
     Eigenvalues ---    0.21967   0.22525   0.23137   0.28725   0.34867
     Eigenvalues ---    0.34947   0.41020   0.42022   0.42297   0.46540
     Eigenvalues ---    0.49487
 RFO step:  Lambda=-1.82764830D-02 EMin= 1.31644774D-02
 Linear search not attempted -- first point.
 Iteration  1 RMS(Cart)=  0.05834860 RMS(Int)=  0.00926120
 Iteration  2 RMS(Cart)=  0.00719050 RMS(Int)=  0.00195484
 Iteration  3 RMS(Cart)=  0.00008519 RMS(Int)=  0.00195242
 Iteration  4 RMS(Cart)=  0.00000005 RMS(Int)=  0.00195242
 ITry= 1 IFail=0 DXMaxC= 2.21D-01 DCOld= 1.00D+10 DXMaxT= 3.00D-01 DXLimC= 3.00D+00 Rises=F
 Variable       Old X    -DE/DX   Delta X   Delta X   Delta X     New X
                                 (Linear)    (Quad)   (Total)
    R1        2.59683  -0.00798   0.00000  -0.01517  -0.01509   2.58173
    R2        2.68506   0.01269   0.00000   0.02859   0.02885   2.71391
    R3        2.05760   0.00065   0.00000   0.00176   0.00176   2.05937
    R4        2.05891  -0.00479   0.00000  -0.01305  -0.01305   2.04586
    R5        3.33145   0.01579   0.00000   0.05116   0.05094   3.38239
    R6        2.59991  -0.00740   0.00000  -0.01449  -0.01434   2.58557
    R7        1.95247   0.03259   0.00000   0.07387   0.07387   2.02634
    R8        3.47999  -0.00256   0.00000  -0.01053  -0.01068   3.46931
    R9        1.95595   0.04242   0.00000   0.09675   0.09675   2.05270
    A1        1.97980   0.00167   0.00000   0.01156   0.00933   1.98913
    A2        2.18266  -0.00280   0.00000  -0.00558  -0.00866   2.17400
    A3        2.09485   0.00243   0.00000   0.02320   0.02025   2.11511
    A4        2.16880   0.00356   0.00000   0.02439   0.02314   2.19194
    A5        1.94301   0.00052   0.00000   0.00440   0.00319   1.94620
    A6        2.16152  -0.00355   0.00000  -0.01657  -0.01791   2.14361
    A7        2.23905  -0.00173   0.00000   0.00805   0.00544   2.24449
    A8        1.86978   0.00936   0.00000   0.04300   0.04078   1.91055
    A9        2.14644  -0.00642   0.00000  -0.02272  -0.02526   2.12118
   A10        2.02827  -0.00554   0.00000  -0.01960  -0.02300   2.00526
   A11        2.18539  -0.00450   0.00000  -0.02213  -0.02639   2.15900
   A12        2.05923   0.01080   0.00000   0.06395   0.05962   2.11885
   A13        1.59482  -0.00538   0.00000  -0.02115  -0.02157   1.57325
    D1       -3.03688  -0.00010   0.00000  -0.01972  -0.02079  -3.05767
    D2       -0.04100   0.00340   0.00000   0.06826   0.06836   0.02735
    D3        0.34860  -0.00656   0.00000  -0.15846  -0.15862   0.18998
    D4       -2.93870  -0.00306   0.00000  -0.07048  -0.06948  -3.00818
    D5        0.12300  -0.00577   0.00000  -0.14083  -0.13955  -0.01655
    D6        3.10717   0.00101   0.00000   0.03365   0.03036   3.13753
    D7        3.03425  -0.00047   0.00000  -0.01415  -0.01128   3.02297
    D8       -0.26477   0.00631   0.00000   0.16033   0.15862  -0.10615
    D9       -0.02990  -0.00054   0.00000   0.00605   0.00618  -0.02372
   D10        2.96670   0.00365   0.00000   0.09764   0.09644   3.06313
   D11        2.75534   0.00910   0.00000   0.25546   0.25724   3.01258
   D12       -0.24069   0.00415   0.00000   0.10160   0.09951  -0.14118
   D13       -0.13687   0.00447   0.00000   0.13383   0.13469  -0.00218
   D14       -3.13290  -0.00049   0.00000  -0.02003  -0.02303   3.12725
   D15        0.09262  -0.00169   0.00000  -0.07602  -0.07824   0.01438
   D16       -2.81594  -0.00667   0.00000  -0.19438  -0.19503  -3.01096
         Item               Value     Threshold  Converged?
 Maximum Force            0.042424     0.000450     NO 
 RMS     Force            0.010401     0.000300     NO 
 Maximum Displacement     0.220980     0.001800     NO 
 RMS     Displacement     0.062371     0.001200     NO 
 Predicted change in Energy=-1.151179D-02
 Lowest energy point so far.  Saving SCF results.
 GradGradGradGradGradGradGradGradGradGradGradGradGradGradGradGradGradGrad

 Leave Link  103 at Fri Mar 25 08:42:06 2016, MaxMem=    33554432 cpu:         0.0
 (Enter /opt/g09/g09/l202.exe)
                          Input orientation:                          
 ---------------------------------------------------------------------
 Center     Atomic      Atomic             Coordinates (Angstroms)
 Number     Number       Type             X           Y           Z
 ---------------------------------------------------------------------
      1          6           0        0.869394   -0.707696    0.024178
      2          6           0       -0.388635   -1.240094    0.004232
      3          6           0       -0.335186    1.326443    0.021468
      4          6           0        0.895022    0.728060    0.045267
      5          1           0        1.809233    1.314316    0.066331
      6          1           0       -0.576423    2.364755    0.137765
      7          1           0       -0.627503   -2.294540    0.060418
      8          1           0        1.787484   -1.287158   -0.070335
      9         16           0       -1.641436    0.037652   -0.034938
 ---------------------------------------------------------------------
                    Distance matrix (angstroms):
                    1          2          3          4          5
     1  C    0.000000
     2  C    1.366194   0.000000
     3  C    2.364052   2.567152   0.000000
     4  C    1.436139   2.350126   1.368226   0.000000
     5  H    2.230158   3.370385   2.144922   1.086242   0.000000
     6  H    3.397535   3.612206   1.072293   2.202834   2.607657
     7  H    2.181763   1.082622   3.632972   3.384438   4.354487
     8  H    1.089769   2.177905   3.368244   2.207024   2.605153
     9  S    2.619792   1.789883   1.835880   2.629966   3.680658
                    6          7          8          9
     6  H    0.000000
     7  H    4.660217   0.000000
     8  H    4.355207   2.619938   0.000000
     9  S    2.565051   2.544852   3.676121   0.000000
 Stoichiometry    C4H4S
 Framework group  C1[X(C4H4S)]
 Deg. of freedom    21
 Full point group                 C1      NOp   1
 RotChk:  IX=0 Diff= 4.06D-02
 Largest Abelian subgroup         C1      NOp   1
 Largest concise Abelian subgroup C1      NOp   1
                         Standard orientation:                         
 ---------------------------------------------------------------------
 Center     Atomic      Atomic             Coordinates (Angstroms)
 Number     Number       Type             X           Y           Z
 ---------------------------------------------------------------------
      1          6           0       -1.261778    0.752369    0.002001
      2          6           0        0.002265    1.270488    0.017277
      3          6           0       -0.080277   -1.295257   -0.003010
      4          6           0       -1.303936   -0.683150    0.002190
      5          1           0       -2.224893   -1.259088   -0.005167
      6          1           0        0.146687   -2.337792    0.103851
      7          1           0        0.251618    2.321232    0.093629
      8          1           0       -2.171004    1.343613   -0.104471
      9         16           0        1.241246   -0.020917   -0.012412
 ---------------------------------------------------------------------
 Rotational constants (GHZ):      7.6223172      5.1294781      3.0675415
 Leave Link  202 at Fri Mar 25 08:42:06 2016, MaxMem=    33554432 cpu:         0.0
 (Enter /opt/g09/g09/l301.exe)

 Semi-emprical parameters in input format:
 Method=8 CoreType=1 PeptideFC=0.0119657245 RIJScale=0.5881090766
 ****
 H       
 PQN=1 NValence=1 F0ss=0.4996849932 ZetaOverlap=1.2185846149 U=-0.4088880125
 Beta=-0.2068422097 CoreKO=1.0643649684 KON=0,0,0,1.0237107472 KON=1,0,1,1.1052197168
 KON=0,1,1,1.0743688104 KON=2,1,1,1.1554783525 EISol=-0.4188110042 EHeat=0.0830298228
 Alpha=1.5493340673
 GCore=0.0085277107,1.4794910116,2.1515238539
 GCore=0.0003769288,1.3877843938,3.5811456638
 GCore=-0.0013463201,0.5568132691,3.7487552103
 ****
 C       
 PQN=2,2 NValence=4 F0ss=0.4780174594 F0sp=0.4253861850 F0pp=0.3899224814 F2pp=0.1791675548
 G1sp=0.2828549662
 ZetaOverlap=1.8086650000,1.6851160000
 U=-1.8861624543,-1.4557965594
 Beta=-0.5775444233,-0.2856353388 DDN=0,1,0.7759488616 DDN=1,1,0.7135325066
 CoreKO=1.1124284736 KON=0,0,0,1.0602068437 KON=1,0,1,0.6606655467 KON=0,1,1,1.1647035227
 KON=2,1,1,0.8116616187 EISol=-4.4398989268 EHeat=0.2723305520 Alpha=1.4014062429
 DipHyp=1.5518084412
 GCore=0.0007333173,1.5360476860,2.9241613185
 GCore=0.0031935650,1.4288890753,3.6129500822
 GCore=-0.0014914263,1.4931731926,3.6786333691
 GCore=-0.0000806621,1.2467674819,5.9443816034
 ****
 S       
 PQN=3,3 NValence=6 F0ss=0.3732165166 F0sp=0.2941468075 F0pp=0.3336562384 F2pp=0.3943779604
 G1sp=0.2651707809
 ZetaOverlap=2.3746741232,1.3573807383,1.0584769110
 U=-2.1612538610,-1.7903186861
 Beta=-0.1489128553,-0.2905136336 DDN=0,1,0.9439229619 DDN=1,1,1.0619836885
 CoreKO=1.1543033468 KON=0,0,0,1.0651651447 KON=1,0,1,0.7848899098 KON=0,1,1,1.1207989137
 KON=2,1,1,0.8042674612 EISol=-7.0460287497 EHeat=0.1058151363 Alpha=1.3301620678
 DipHyp=1.8877373144
 GCore=-0.0343544745,1.2618425871,1.4242740936
 GCore=-0.0008333864,1.6609295365,2.9077463112
 GCore=0.0008596462,3.5843376148,3.5762507560
 ****
 
 Standard basis: VSTO-6G (5D, 7F)
 Ernie: Thresh=  0.10000D-02 Tol=  0.10000D-05 Strict=F.
  NNHCO=     0 NNPyr=     0 NCTC=     0               EPep=         0.000000000
    EC=        62.635495163  ECS=         1.536740061   EG=         0.147190519
   EHC=         0.000000000  EAt=       -26.480868474  AtH=         1.527256636
 EPDDG=         0.000000000  ECC=        64.319425743 EAtT=        28.008125109
 There are    24 symmetry adapted cartesian basis functions of A   symmetry.
 There are    24 symmetry adapted basis functions of A   symmetry.
    24 basis functions,   144 primitive gaussians,    24 cartesian basis functions
    13 alpha electrons       13 beta electrons
       nuclear repulsion energy        92.3275508521 Hartrees.
 IExCor=    0 DFT=F Ex=HF Corr=None ExCW=0 ScaHFX=  1.000000
 ScaDFX=  1.000000  1.000000  1.000000  1.000000 ScalE2=  1.000000  1.000000
 IRadAn=      0 IRanWt=     -1 IRanGd=            0 ICorTp=0 IEmpDi=  4
 Integral buffers will be    131072 words long.
 Regular integral format.
 Two-electron integral symmetry is turned off.
 Leave Link  301 at Fri Mar 25 08:42:06 2016, MaxMem=    33554432 cpu:         0.0
 (Enter /opt/g09/g09/l302.exe)
 Do NDO integrals.
 NPDir=0 NMtPBC=     1 NCelOv=     1 NCel=       1 NClECP=     1 NCelD=      1
         NCelK=      1 NCelE2=     1 NClLst=     1 CellRange=     0.0.
 One-electron integrals computed using PRISM.
 NBasis=    24 RedAO= F EigKep=  0.00D+00  NBF=    24
 NBsUse=    24 1.00D-04 EigRej=  0.00D+00 NBFU=    24
 Leave Link  302 at Fri Mar 25 08:42:06 2016, MaxMem=    33554432 cpu:         0.0
 (Enter /opt/g09/g09/l303.exe)
 DipDrv:  MaxL=1.
 Leave Link  303 at Fri Mar 25 08:42:06 2016, MaxMem=    33554432 cpu:         0.0
 (Enter /opt/g09/g09/l401.exe)
 Initial guess from the checkpoint file:  "freq.chk"
 B after Tr=     0.000000    0.000000    0.000000
         Rot=    0.999988   -0.000107   -0.000063   -0.004822 Ang=  -0.55 deg.
 Guess basis will be translated and rotated to current coordinates.
 JPrj=0 DoOrth=T DoCkMO=T.
 Leave Link  401 at Fri Mar 25 08:42:06 2016, MaxMem=    33554432 cpu:         0.0
 (Enter /opt/g09/g09/l502.exe)
 Closed shell SCF:
 Using DIIS extrapolation, IDIIS=  1040.
 Overlap will be assumed to be unity.
 Two-electron integral symmetry not used.
 Keep J ints in memory in canonical form, NReq=888082.
 IVT=       79475 IEndB=       79475 NGot=    33554432 MDV=    33473473
 LenX=    33473473 LenY=    33472456
 Requested convergence on RMS density matrix=1.00D-08 within 128 cycles.
 Requested convergence on MAX density matrix=1.00D-06.
 Requested convergence on             energy=1.00D-06.
 No special actions if energy rises.
 FoFCou: FMM=F IPFlag=           0 FMFlag=           0 FMFlg1=           0
         NFxFlg=           0 DoJE=F BraDBF=F KetDBF=F FulRan=T
         wScrn=  0.000000 ICntrl=     600 IOpCl=  2 I1Cent=           0 NGrid=           0
         NMat0=    1 NMatS0=     54 NMatT0=    0 NMatD0=    1 NMtDS0=    0 NMtDT0=    0
 Symmetry not used in FoFCou.

 Cycle   1  Pass 1  IDiag  1:
 E= 0.196864450695799    
 DIIS: error= 8.64D-03 at cycle   1 NSaved=   1.
 NSaved= 1 IEnMin= 1 EnMin= 0.196864450695799     IErMin= 1 ErrMin= 8.64D-03
 ErrMax= 8.64D-03  0.00D+00 EMaxC= 1.00D-01 BMatC= 1.74D-03 BMatP= 1.74D-03
 IDIUse=3 WtCom= 9.14D-01 WtEn= 8.64D-02
 Coeff-Com:  0.100D+01
 Coeff-En:   0.100D+01
 Coeff:      0.100D+01
 GapD=    2.000 DampG=2.000 DampE=1.000 DampFc=2.0000 IDamp=-1.
 RMSDP=3.45D-03 MaxDP=2.13D-02              OVMax= 0.00D+00

 Cycle   2  Pass 1  IDiag  3:
 E= 0.190409406630380     Delta-E=       -0.006455044065 Rises=F Damp=F
 DIIS: error= 3.64D-03 at cycle   2 NSaved=   2.
 NSaved= 2 IEnMin= 2 EnMin= 0.190409406630380     IErMin= 2 ErrMin= 3.64D-03
 ErrMax= 3.64D-03  0.00D+00 EMaxC= 1.00D-01 BMatC= 2.73D-04 BMatP= 1.74D-03
 IDIUse=3 WtCom= 9.64D-01 WtEn= 3.64D-02
 Coeff-Com: -0.525D+00 0.153D+01
 Coeff-En:   0.000D+00 0.100D+01
 Coeff:     -0.506D+00 0.151D+01
 Gap=     0.351 Goal=   None    Shift=    0.000
 RMSDP=2.46D-03 MaxDP=1.61D-02 DE=-6.46D-03 OVMax= 1.52D-02

 Cycle   3  Pass 1  IDiag  3:
 E= 0.188784752821434     Delta-E=       -0.001624653809 Rises=F Damp=F
 DIIS: error= 8.10D-04 at cycle   3 NSaved=   3.
 NSaved= 3 IEnMin= 3 EnMin= 0.188784752821434     IErMin= 3 ErrMin= 8.10D-04
 ErrMax= 8.10D-04  0.00D+00 EMaxC= 1.00D-01 BMatC= 1.52D-05 BMatP= 2.73D-04
 IDIUse=3 WtCom= 9.92D-01 WtEn= 8.10D-03
 Coeff-Com:  0.251D+00-0.892D+00 0.164D+01
 Coeff-En:   0.000D+00 0.000D+00 0.100D+01
 Coeff:      0.249D+00-0.885D+00 0.164D+01
 Gap=     0.351 Goal=   None    Shift=    0.000
 RMSDP=8.42D-04 MaxDP=5.00D-03 DE=-1.62D-03 OVMax= 5.39D-03

 Cycle   4  Pass 1  IDiag  3:
 E= 0.188663660350301     Delta-E=       -0.000121092471 Rises=F Damp=F
 DIIS: error= 8.82D-05 at cycle   4 NSaved=   4.
 NSaved= 4 IEnMin= 4 EnMin= 0.188663660350301     IErMin= 4 ErrMin= 8.82D-05
 ErrMax= 8.82D-05  0.00D+00 EMaxC= 1.00D-01 BMatC= 5.14D-07 BMatP= 1.52D-05
 IDIUse=1 WtCom= 1.00D+00 WtEn= 0.00D+00
 Coeff-Com: -0.154D+00 0.556D+00-0.111D+01 0.171D+01
 Coeff:     -0.154D+00 0.556D+00-0.111D+01 0.171D+01
 Gap=     0.351 Goal=   None    Shift=    0.000
 RMSDP=1.78D-04 MaxDP=8.24D-04 DE=-1.21D-04 OVMax= 1.87D-03

 Cycle   5  Pass 1  IDiag  3:
 E= 0.188658583058825     Delta-E=       -0.000005077291 Rises=F Damp=F
 DIIS: error= 2.43D-05 at cycle   5 NSaved=   5.
 NSaved= 5 IEnMin= 5 EnMin= 0.188658583058825     IErMin= 5 ErrMin= 2.43D-05
 ErrMax= 2.43D-05  0.00D+00 EMaxC= 1.00D-01 BMatC= 3.43D-08 BMatP= 5.14D-07
 IDIUse=1 WtCom= 1.00D+00 WtEn= 0.00D+00
 Coeff-Com:  0.648D-01-0.235D+00 0.478D+00-0.915D+00 0.161D+01
 Coeff:      0.648D-01-0.235D+00 0.478D+00-0.915D+00 0.161D+01
 Gap=     0.351 Goal=   None    Shift=    0.000
 RMSDP=5.17D-05 MaxDP=2.63D-04 DE=-5.08D-06 OVMax= 5.59D-04

 Cycle   6  Pass 1  IDiag  3:
 E= 0.188658221105271     Delta-E=       -0.000000361954 Rises=F Damp=F
 DIIS: error= 5.19D-06 at cycle   6 NSaved=   6.
 NSaved= 6 IEnMin= 6 EnMin= 0.188658221105271     IErMin= 6 ErrMin= 5.19D-06
 ErrMax= 5.19D-06  0.00D+00 EMaxC= 1.00D-01 BMatC= 1.86D-09 BMatP= 3.43D-08
 IDIUse=1 WtCom= 1.00D+00 WtEn= 0.00D+00
 Coeff-Com: -0.102D-01 0.373D-01-0.772D-01 0.180D+00-0.513D+00 0.138D+01
 Coeff:     -0.102D-01 0.373D-01-0.772D-01 0.180D+00-0.513D+00 0.138D+01
 Gap=     0.351 Goal=   None    Shift=    0.000
 RMSDP=1.03D-05 MaxDP=4.77D-05 DE=-3.62D-07 OVMax= 8.90D-05

 Cycle   7  Pass 1  IDiag  3:
 E= 0.188658203780918     Delta-E=       -0.000000017324 Rises=F Damp=F
 DIIS: error= 1.70D-06 at cycle   7 NSaved=   7.
 NSaved= 7 IEnMin= 7 EnMin= 0.188658203780918     IErMin= 7 ErrMin= 1.70D-06
 ErrMax= 1.70D-06  0.00D+00 EMaxC= 1.00D-01 BMatC= 1.63D-10 BMatP= 1.86D-09
 IDIUse=1 WtCom= 1.00D+00 WtEn= 0.00D+00
 Coeff-Com: -0.847D-03 0.302D-02-0.561D-02-0.261D-02 0.804D-01-0.540D+00
 Coeff-Com:  0.147D+01
 Coeff:     -0.847D-03 0.302D-02-0.561D-02-0.261D-02 0.804D-01-0.540D+00
 Coeff:      0.147D+01
 Gap=     0.351 Goal=   None    Shift=    0.000
 RMSDP=3.12D-06 MaxDP=1.60D-05 DE=-1.73D-08 OVMax= 2.82D-05

 Cycle   8  Pass 1  IDiag  3:
 E= 0.188658202243261     Delta-E=       -0.000000001538 Rises=F Damp=F
 DIIS: error= 4.76D-07 at cycle   8 NSaved=   8.
 NSaved= 8 IEnMin= 8 EnMin= 0.188658202243261     IErMin= 8 ErrMin= 4.76D-07
 ErrMax= 4.76D-07  0.00D+00 EMaxC= 1.00D-01 BMatC= 1.29D-11 BMatP= 1.63D-10
 IDIUse=1 WtCom= 1.00D+00 WtEn= 0.00D+00
 Coeff-Com:  0.110D-02-0.400D-02 0.802D-02-0.123D-01 0.671D-02 0.104D+00
 Coeff-Com: -0.548D+00 0.144D+01
 Coeff:      0.110D-02-0.400D-02 0.802D-02-0.123D-01 0.671D-02 0.104D+00
 Coeff:     -0.548D+00 0.144D+01
 Gap=     0.351 Goal=   None    Shift=    0.000
 RMSDP=8.81D-07 MaxDP=5.63D-06 DE=-1.54D-09 OVMax= 1.03D-05

 Cycle   9  Pass 1  IDiag  3:
 E= 0.188658202113032     Delta-E=       -0.000000000130 Rises=F Damp=F
 DIIS: error= 1.97D-07 at cycle   9 NSaved=   9.
 NSaved= 9 IEnMin= 9 EnMin= 0.188658202113032     IErMin= 9 ErrMin= 1.97D-07
 ErrMax= 1.97D-07  0.00D+00 EMaxC= 1.00D-01 BMatC= 1.48D-12 BMatP= 1.29D-11
 IDIUse=1 WtCom= 1.00D+00 WtEn= 0.00D+00
 Coeff-Com: -0.361D-03 0.131D-02-0.268D-02 0.532D-02-0.115D-01 0.159D-01
 Coeff-Com:  0.567D-01-0.520D+00 0.146D+01
 Coeff:     -0.361D-03 0.131D-02-0.268D-02 0.532D-02-0.115D-01 0.159D-01
 Coeff:      0.567D-01-0.520D+00 0.146D+01
 Gap=     0.351 Goal=   None    Shift=    0.000
 RMSDP=3.30D-07 MaxDP=2.31D-06 DE=-1.30D-10 OVMax= 4.24D-06

 Cycle  10  Pass 1  IDiag  3:
 E= 0.188658202095866     Delta-E=       -0.000000000017 Rises=F Damp=F
 DIIS: error= 8.06D-08 at cycle  10 NSaved=  10.
 NSaved=10 IEnMin=10 EnMin= 0.188658202095866     IErMin=10 ErrMin= 8.06D-08
 ErrMax= 8.06D-08  0.00D+00 EMaxC= 1.00D-01 BMatC= 1.94D-13 BMatP= 1.48D-12
 IDIUse=1 WtCom= 1.00D+00 WtEn= 0.00D+00
 Coeff-Com:  0.472D-04-0.171D-03 0.360D-03-0.116D-02 0.505D-02-0.213D-01
 Coeff-Com:  0.414D-01 0.837D-01-0.761D+00 0.165D+01
 Coeff:      0.472D-04-0.171D-03 0.360D-03-0.116D-02 0.505D-02-0.213D-01
 Coeff:      0.414D-01 0.837D-01-0.761D+00 0.165D+01
 Gap=     0.351 Goal=   None    Shift=    0.000
 RMSDP=1.45D-07 MaxDP=9.32D-07 DE=-1.72D-11 OVMax= 1.79D-06

 Cycle  11  Pass 1  IDiag  3:
 E= 0.188658202093663     Delta-E=       -0.000000000002 Rises=F Damp=F
 DIIS: error= 2.31D-08 at cycle  11 NSaved=  11.
 NSaved=11 IEnMin=11 EnMin= 0.188658202093663     IErMin=11 ErrMin= 2.31D-08
 ErrMax= 2.31D-08  0.00D+00 EMaxC= 1.00D-01 BMatC= 1.28D-14 BMatP= 1.94D-13
 IDIUse=1 WtCom= 1.00D+00 WtEn= 0.00D+00
 Coeff-Com: -0.374D-05 0.139D-04-0.353D-04 0.296D-03-0.189D-02 0.938D-02
 Coeff-Com: -0.229D-01-0.119D-01 0.297D+00-0.867D+00 0.160D+01
 Coeff:     -0.374D-05 0.139D-04-0.353D-04 0.296D-03-0.189D-02 0.938D-02
 Coeff:     -0.229D-01-0.119D-01 0.297D+00-0.867D+00 0.160D+01
 Gap=     0.351 Goal=   None    Shift=    0.000
 RMSDP=3.38D-08 MaxDP=2.19D-07 DE=-2.20D-12 OVMax= 3.82D-07

 Cycle  12  Pass 1  IDiag  3:
 E= 0.188658202093450     Delta-E=        0.000000000000 Rises=F Damp=F
 DIIS: error= 6.88D-09 at cycle  12 NSaved=  12.
 NSaved=12 IEnMin=12 EnMin= 0.188658202093450     IErMin=12 ErrMin= 6.88D-09
 ErrMax= 6.88D-09  0.00D+00 EMaxC= 1.00D-01 BMatC= 8.91D-16 BMatP= 1.28D-14
 IDIUse=1 WtCom= 1.00D+00 WtEn= 0.00D+00
 Coeff-Com: -0.805D-07 0.639D-07 0.267D-05-0.956D-04 0.700D-03-0.361D-02
 Coeff-Com:  0.922D-02 0.167D-02-0.105D+00 0.334D+00-0.809D+00 0.157D+01
 Coeff:     -0.805D-07 0.639D-07 0.267D-05-0.956D-04 0.700D-03-0.361D-02
 Coeff:      0.922D-02 0.167D-02-0.105D+00 0.334D+00-0.809D+00 0.157D+01
 Gap=     0.351 Goal=   None    Shift=    0.000
 RMSDP=7.52D-09 MaxDP=6.31D-08 DE=-2.13D-13 OVMax= 6.49D-08

 Cycle  13  Pass 2  IDiag  1:
 SCF Done:  E(RAM1) =  0.188658202093     A.U. after   13 cycles
            NFock= 12  Conv=0.75D-08     -V/T= 1.0132
 KE=-1.427293995291D+01 PE=-1.530918183693D+02 EE= 7.522586567220D+01
 Leave Link  502 at Fri Mar 25 08:42:06 2016, MaxMem=    33554432 cpu:         0.0
 (Enter /opt/g09/g09/l701.exe)
 Compute integral first derivatives.
 ... and contract with generalized density number  0.
 Leave Link  701 at Fri Mar 25 08:42:06 2016, MaxMem=    33554432 cpu:         0.0
 (Enter /opt/g09/g09/l702.exe)
 L702 exits ... SP integral derivatives will be done elsewhere.
 Leave Link  702 at Fri Mar 25 08:42:06 2016, MaxMem=    33554432 cpu:         0.0
 (Enter /opt/g09/g09/l703.exe)
 Compute integral first derivatives, UseDBF=F ICtDFT=           0.
 Integral derivatives from FoFJK, PRISM(SPDF).
 Calling FoFJK, ICntrl=      2127 FMM=F ISym2X=0 I1Cent= 0 IOpClX= 0 NMat=1 NMatS=1 NMatT=0.
 FoFJK:  IHMeth= 8 ICntrl=    2127 DoSepK=F KAlg= 0 I1Cent=   0 FoldK=F
 IRaf=         0 NMat=   1 IRICut=       1 DoRegI=T DoRafI=F ISym2E= 0.
 FoFCou: FMM=F IPFlag=           0 FMFlag=      100000 FMFlg1=         800
         NFxFlg=           0 DoJE=F BraDBF=F KetDBF=F FulRan=T
         wScrn=  0.000000 ICntrl=    2127 IOpCl=  0 I1Cent=           0 NGrid=           0
         NMat0=    1 NMatS0=      1 NMatT0=    0 NMatD0=    1 NMtDS0=    0 NMtDT0=    0
 Symmetry not used in FoFCou.
 Leave Link  703 at Fri Mar 25 08:42:06 2016, MaxMem=    33554432 cpu:         0.0
 (Enter /opt/g09/g09/l716.exe)
 Dipole        =-1.08316055D-01-1.57650930D-02 1.98874371D-02
 ***** Axes restored to original set *****
 -------------------------------------------------------------------
 Center     Atomic                   Forces (Hartrees/Bohr)
 Number     Number              X              Y              Z
 -------------------------------------------------------------------
      1        6          -0.004221114    0.000429560   -0.008178565
      2        6           0.013012046   -0.006556369    0.004179834
      3        6           0.005905221   -0.015266359    0.006695119
      4        6          -0.011342256    0.009975808   -0.002216386
      5        1           0.004323106   -0.001969350    0.000874773
      6        1          -0.001160697    0.004367260   -0.004304986
      7        1          -0.002068252    0.001089311   -0.003426981
      8        1          -0.000385293   -0.000797436    0.004944153
      9       16          -0.004062761    0.008727575    0.001433038
 -------------------------------------------------------------------
 Cartesian Forces:  Max     0.015266359 RMS     0.006265570
 Leave Link  716 at Fri Mar 25 08:42:06 2016, MaxMem=    33554432 cpu:         0.0
 (Enter /opt/g09/g09/l103.exe)

 GradGradGradGradGradGradGradGradGradGradGradGradGradGradGradGradGradGrad
 Berny optimization.
 Using GEDIIS/GDIIS optimizer.
 FormGI is forming the generalized inverse of G from B-inverse, IUseBI=4.
 Internal  Forces:  Max     0.008370500 RMS     0.002799421
 Search for a local minimum.
 Step number   2 out of a maximum of   48
 All quantities printed in internal units (Hartrees-Bohrs-Radians)
 RMS Force = .27994D-02 SwitMx=.10000D-02 MixMth= 1
 Mixed Optimization -- RFO/linear search
 Update second derivatives using D2CorX and points    1    2
 DE= -1.12D-02 DEPred=-1.15D-02 R= 9.71D-01
 TightC=F SS=  1.41D+00  RLast= 5.07D-01 DXNew= 5.0454D-01 1.5208D+00
 Trust test= 9.71D-01 RLast= 5.07D-01 DXMaxT set to 5.05D-01
 ITU=  1  0
 Use linear search instead of GDIIS.
     Eigenvalues ---    0.01360   0.01720   0.01902   0.02080   0.02152
     Eigenvalues ---    0.02703   0.14719   0.15880   0.15909   0.15985
     Eigenvalues ---    0.21468   0.22355   0.23219   0.27159   0.34826
     Eigenvalues ---    0.34950   0.39651   0.41105   0.42273   0.46664
     Eigenvalues ---    0.49929
 RFO step:  Lambda=-2.30623446D-03 EMin= 1.36045802D-02
 Quartic linear search produced a step of  0.32892.
 Iteration  1 RMS(Cart)=  0.04392213 RMS(Int)=  0.00270116
 Iteration  2 RMS(Cart)=  0.00223013 RMS(Int)=  0.00139005
 Iteration  3 RMS(Cart)=  0.00000621 RMS(Int)=  0.00139004
 Iteration  4 RMS(Cart)=  0.00000000 RMS(Int)=  0.00139004
 ITry= 1 IFail=0 DXMaxC= 1.41D-01 DCOld= 1.00D+10 DXMaxT= 5.05D-01 DXLimC= 3.00D+00 Rises=F
 Variable       Old X    -DE/DX   Delta X   Delta X   Delta X     New X
                                 (Linear)    (Quad)   (Total)
    R1        2.58173  -0.00495  -0.00496  -0.00858  -0.01397   2.56776
    R2        2.71391   0.00118   0.00949  -0.00437   0.00527   2.71917
    R3        2.05937  -0.00033   0.00058  -0.00169  -0.00111   2.05826
    R4        2.04586  -0.00078  -0.00429   0.00040  -0.00389   2.04196
    R5        3.38239   0.00698   0.01675   0.01986   0.03613   3.41852
    R6        2.58557  -0.00837  -0.00472  -0.01946  -0.02363   2.56194
    R7        2.02634   0.00402   0.02430  -0.00627   0.01803   2.04437
    R8        3.46931  -0.00371  -0.00351  -0.01864  -0.02188   3.44743
    R9        2.05270   0.00259   0.03182  -0.01648   0.01534   2.06804
    A1        1.98913   0.00099   0.00307   0.00401   0.00582   1.99494
    A2        2.17400  -0.00114  -0.00285  -0.00260  -0.00731   2.16669
    A3        2.11511   0.00033   0.00666   0.00106   0.00590   2.12100
    A4        2.19194   0.00343   0.00761   0.01934   0.02643   2.21837
    A5        1.94620  -0.00191   0.00105  -0.00889  -0.00870   1.93750
    A6        2.14361  -0.00147  -0.00589  -0.01000  -0.01644   2.12717
    A7        2.24449  -0.00094   0.00179   0.00299   0.00021   2.24470
    A8        1.91055   0.00311   0.01341   0.00737   0.01848   1.92903
    A9        2.12118  -0.00188  -0.00831   0.00102  -0.01185   2.10933
   A10        2.00526  -0.00021  -0.00757   0.00114  -0.00640   1.99886
   A11        2.15900  -0.00401  -0.00868  -0.02216  -0.03285   2.12616
   A12        2.11885   0.00422   0.01961   0.02171   0.03931   2.15816
   A13        1.57325  -0.00196  -0.00709  -0.00236  -0.00885   1.56440
    D1       -3.05767  -0.00118  -0.00684  -0.06776  -0.07551  -3.13318
    D2        0.02735  -0.00027   0.02248  -0.05947  -0.03699  -0.00964
    D3        0.18998  -0.00305  -0.05217  -0.09418  -0.14638   0.04360
    D4       -3.00818  -0.00214  -0.02285  -0.08589  -0.10787  -3.11605
    D5       -0.01655   0.00010  -0.04590   0.06900   0.02366   0.00712
    D6        3.13753  -0.00012   0.00999   0.00595   0.01520  -3.13046
    D7        3.02297   0.00180  -0.00371   0.09418   0.09158   3.11455
    D8       -0.10615   0.00158   0.05217   0.03113   0.08312  -0.02303
    D9       -0.02372   0.00025   0.00203   0.02914   0.03123   0.00751
   D10        3.06313   0.00132   0.03172   0.03828   0.06902   3.13215
   D11        3.01258   0.00260   0.08461   0.05958   0.14500  -3.12561
   D12       -0.14118   0.00276   0.03273   0.12069   0.15306   0.01188
   D13       -0.00218   0.00002   0.04430  -0.04377   0.00119  -0.00099
   D14        3.12725   0.00017  -0.00758   0.01735   0.00925   3.13650
   D15        0.01438  -0.00015  -0.02573   0.00875  -0.01798  -0.00360
   D16       -3.01096  -0.00257  -0.06415  -0.08610  -0.14968   3.12255
         Item               Value     Threshold  Converged?
 Maximum Force            0.008371     0.000450     NO 
 RMS     Force            0.002799     0.000300     NO 
 Maximum Displacement     0.141497     0.001800     NO 
 RMS     Displacement     0.044102     0.001200     NO 
 Predicted change in Energy=-1.848635D-03
 Lowest energy point so far.  Saving SCF results.
 GradGradGradGradGradGradGradGradGradGradGradGradGradGradGradGradGradGrad

 Leave Link  103 at Fri Mar 25 08:42:06 2016, MaxMem=    33554432 cpu:         0.0
 (Enter /opt/g09/g09/l202.exe)
                          Input orientation:                          
 ---------------------------------------------------------------------
 Center     Atomic      Atomic             Coordinates (Angstroms)
 Number     Number       Type             X           Y           Z
 ---------------------------------------------------------------------
      1          6           0        0.868403   -0.702169    0.017099
      2          6           0       -0.377533   -1.244148    0.001727
      3          6           0       -0.337434    1.315733    0.062902
      4          6           0        0.888125    0.736320    0.046533
      5          1           0        1.825808    1.300552    0.050937
      6          1           0       -0.586406    2.368488    0.071894
      7          1           0       -0.631412   -2.294354   -0.013338
      8          1           0        1.788510   -1.283623   -0.023308
      9         16           0       -1.646112    0.044939    0.039939
 ---------------------------------------------------------------------
                    Distance matrix (angstroms):
                    1          2          3          4          5
     1  C    0.000000
     2  C    1.358799   0.000000
     3  C    2.351185   2.560927   0.000000
     4  C    1.438925   2.350777   1.355722   0.000000
     5  H    2.220058   3.366398   2.163328   1.094361   0.000000
     6  H    3.398295   3.619350   1.081832   2.199740   2.638125
     7  H    2.187561   1.080561   3.622839   3.390805   4.354929
     8  H    1.089183   2.166548   3.359126   2.212633   2.585511
     9  S    2.623257   1.809004   1.824304   2.626862   3.692006
                    6          7          8          9
     6  H    0.000000
     7  H    4.663838   0.000000
     8  H    4.357432   2.622536   0.000000
     9  S    2.553993   2.550440   3.683165   0.000000
 Stoichiometry    C4H4S
 Framework group  C1[X(C4H4S)]
 Deg. of freedom    21
 Full point group                 C1      NOp   1
 RotChk:  IX=2 Diff= 4.42D-02
 Largest Abelian subgroup         C1      NOp   1
 Largest concise Abelian subgroup C1      NOp   1
                         Standard orientation:                         
 ---------------------------------------------------------------------
 Center     Atomic      Atomic             Coordinates (Angstroms)
 Number     Number       Type             X           Y           Z
 ---------------------------------------------------------------------
      1          6           0       -1.273051    0.730736    0.004813
      2          6           0       -0.029047    1.277285   -0.003669
      3          6           0       -0.060157   -1.283449    0.000594
      4          6           0       -1.287743   -0.708112    0.002255
      5          1           0       -2.223470   -1.275583   -0.002011
      6          1           0        0.192439   -2.335264   -0.014922
      7          1           0        0.221184    2.328449    0.003623
      8          1           0       -2.195299    1.309720   -0.018786
      9         16           0        1.244071   -0.007881    0.000508
 ---------------------------------------------------------------------
 Rotational constants (GHZ):      7.6455518      5.1241462      3.0680001
 Leave Link  202 at Fri Mar 25 08:42:06 2016, MaxMem=    33554432 cpu:         0.0
 (Enter /opt/g09/g09/l301.exe)

 Semi-emprical parameters in input format:
 Method=8 CoreType=1 PeptideFC=0.0119657245 RIJScale=0.5881090766
 ****
 H       
 PQN=1 NValence=1 F0ss=0.4996849932 ZetaOverlap=1.2185846149 U=-0.4088880125
 Beta=-0.2068422097 CoreKO=1.0643649684 KON=0,0,0,1.0237107472 KON=1,0,1,1.1052197168
 KON=0,1,1,1.0743688104 KON=2,1,1,1.1554783525 EISol=-0.4188110042 EHeat=0.0830298228
 Alpha=1.5493340673
 GCore=0.0085277107,1.4794910116,2.1515238539
 GCore=0.0003769288,1.3877843938,3.5811456638
 GCore=-0.0013463201,0.5568132691,3.7487552103
 ****
 C       
 PQN=2,2 NValence=4 F0ss=0.4780174594 F0sp=0.4253861850 F0pp=0.3899224814 F2pp=0.1791675548
 G1sp=0.2828549662
 ZetaOverlap=1.8086650000,1.6851160000
 U=-1.8861624543,-1.4557965594
 Beta=-0.5775444233,-0.2856353388 DDN=0,1,0.7759488616 DDN=1,1,0.7135325066
 CoreKO=1.1124284736 KON=0,0,0,1.0602068437 KON=1,0,1,0.6606655467 KON=0,1,1,1.1647035227
 KON=2,1,1,0.8116616187 EISol=-4.4398989268 EHeat=0.2723305520 Alpha=1.4014062429
 DipHyp=1.5518084412
 GCore=0.0007333173,1.5360476860,2.9241613185
 GCore=0.0031935650,1.4288890753,3.6129500822
 GCore=-0.0014914263,1.4931731926,3.6786333691
 GCore=-0.0000806621,1.2467674819,5.9443816034
 ****
 S       
 PQN=3,3 NValence=6 F0ss=0.3732165166 F0sp=0.2941468075 F0pp=0.3336562384 F2pp=0.3943779604
 G1sp=0.2651707809
 ZetaOverlap=2.3746741232,1.3573807383,1.0584769110
 U=-2.1612538610,-1.7903186861
 Beta=-0.1489128553,-0.2905136336 DDN=0,1,0.9439229619 DDN=1,1,1.0619836885
 CoreKO=1.1543033468 KON=0,0,0,1.0651651447 KON=1,0,1,0.7848899098 KON=0,1,1,1.1207989137
 KON=2,1,1,0.8042674612 EISol=-7.0460287497 EHeat=0.1058151363 Alpha=1.3301620678
 DipHyp=1.8877373144
 GCore=-0.0343544745,1.2618425871,1.4242740936
 GCore=-0.0008333864,1.6609295365,2.9077463112
 GCore=0.0008596462,3.5843376148,3.5762507560
 ****
 
 Standard basis: VSTO-6G (5D, 7F)
 Ernie: Thresh=  0.10000D-02 Tol=  0.10000D-05 Strict=F.
  NNHCO=     0 NNPyr=     0 NCTC=     0               EPep=         0.000000000
    EC=        62.659055312  ECS=         1.541854692   EG=         0.147205420
   EHC=         0.000000000  EAt=       -26.480868474  AtH=         1.527256636
 EPDDG=         0.000000000  ECC=        64.348115423 EAtT=        28.008125109
 There are    24 symmetry adapted cartesian basis functions of A   symmetry.
 There are    24 symmetry adapted basis functions of A   symmetry.
    24 basis functions,   144 primitive gaussians,    24 cartesian basis functions
    13 alpha electrons       13 beta electrons
       nuclear repulsion energy        92.3562405323 Hartrees.
 IExCor=    0 DFT=F Ex=HF Corr=None ExCW=0 ScaHFX=  1.000000
 ScaDFX=  1.000000  1.000000  1.000000  1.000000 ScalE2=  1.000000  1.000000
 IRadAn=      0 IRanWt=     -1 IRanGd=            0 ICorTp=0 IEmpDi=  4
 Integral buffers will be    131072 words long.
 Regular integral format.
 Two-electron integral symmetry is turned off.
 Leave Link  301 at Fri Mar 25 08:42:06 2016, MaxMem=    33554432 cpu:         0.0
 (Enter /opt/g09/g09/l302.exe)
 Do NDO integrals.
 NPDir=0 NMtPBC=     1 NCelOv=     1 NCel=       1 NClECP=     1 NCelD=      1
         NCelK=      1 NCelE2=     1 NClLst=     1 CellRange=     0.0.
 One-electron integrals computed using PRISM.
 NBasis=    24 RedAO= F EigKep=  0.00D+00  NBF=    24
 NBsUse=    24 1.00D-04 EigRej=  0.00D+00 NBFU=    24
 Leave Link  302 at Fri Mar 25 08:42:06 2016, MaxMem=    33554432 cpu:         0.0
 (Enter /opt/g09/g09/l303.exe)
 DipDrv:  MaxL=1.
 Leave Link  303 at Fri Mar 25 08:42:06 2016, MaxMem=    33554432 cpu:         0.0
 (Enter /opt/g09/g09/l401.exe)
 Initial guess from the checkpoint file:  "freq.chk"
 B after Tr=     0.000000    0.000000    0.000000
         Rot=    0.999971    0.000020   -0.000006   -0.007681 Ang=   0.88 deg.
 Guess basis will be translated and rotated to current coordinates.
 JPrj=0 DoOrth=T DoCkMO=T.
 Leave Link  401 at Fri Mar 25 08:42:06 2016, MaxMem=    33554432 cpu:         0.0
 (Enter /opt/g09/g09/l502.exe)
 Closed shell SCF:
 Using DIIS extrapolation, IDIIS=  1040.
 Overlap will be assumed to be unity.
 Two-electron integral symmetry not used.
 Keep J ints in memory in canonical form, NReq=888082.
 IVT=       79475 IEndB=       79475 NGot=    33554432 MDV=    33473473
 LenX=    33473473 LenY=    33472456
 Requested convergence on RMS density matrix=1.00D-08 within 128 cycles.
 Requested convergence on MAX density matrix=1.00D-06.
 Requested convergence on             energy=1.00D-06.
 No special actions if energy rises.
 FoFCou: FMM=F IPFlag=           0 FMFlag=           0 FMFlg1=           0
         NFxFlg=           0 DoJE=F BraDBF=F KetDBF=F FulRan=T
         wScrn=  0.000000 ICntrl=     600 IOpCl=  2 I1Cent=           0 NGrid=           0
         NMat0=    1 NMatS0=     54 NMatT0=    0 NMatD0=    1 NMtDS0=    0 NMtDT0=    0
 Symmetry not used in FoFCou.

 Cycle   1  Pass 1  IDiag  1:
 E= 0.189416707805691    
 DIIS: error= 3.69D-03 at cycle   1 NSaved=   1.
 NSaved= 1 IEnMin= 1 EnMin= 0.189416707805691     IErMin= 1 ErrMin= 3.69D-03
 ErrMax= 3.69D-03  0.00D+00 EMaxC= 1.00D-01 BMatC= 4.50D-04 BMatP= 4.50D-04
 IDIUse=3 WtCom= 9.63D-01 WtEn= 3.69D-02
 Coeff-Com:  0.100D+01
 Coeff-En:   0.100D+01
 Coeff:      0.100D+01
 GapD=    2.000 DampG=2.000 DampE=1.000 DampFc=2.0000 IDamp=-1.
 RMSDP=2.03D-03 MaxDP=1.53D-02              OVMax= 0.00D+00

 Cycle   2  Pass 1  IDiag  3:
 E= 0.187379337154852     Delta-E=       -0.002037370651 Rises=F Damp=F
 DIIS: error= 1.76D-03 at cycle   2 NSaved=   2.
 NSaved= 2 IEnMin= 2 EnMin= 0.187379337154852     IErMin= 2 ErrMin= 1.76D-03
 ErrMax= 1.76D-03  0.00D+00 EMaxC= 1.00D-01 BMatC= 8.64D-05 BMatP= 4.50D-04
 IDIUse=3 WtCom= 9.82D-01 WtEn= 1.76D-02
 Coeff-Com: -0.671D+00 0.167D+01
 Coeff-En:   0.000D+00 0.100D+01
 Coeff:     -0.659D+00 0.166D+01
 Gap=     0.355 Goal=   None    Shift=    0.000
 RMSDP=1.63D-03 MaxDP=1.22D-02 DE=-2.04D-03 OVMax= 1.24D-02

 Cycle   3  Pass 1  IDiag  3:
 E= 0.186802001666763     Delta-E=       -0.000577335488 Rises=F Damp=F
 DIIS: error= 3.02D-04 at cycle   3 NSaved=   3.
 NSaved= 3 IEnMin= 3 EnMin= 0.186802001666763     IErMin= 3 ErrMin= 3.02D-04
 ErrMax= 3.02D-04  0.00D+00 EMaxC= 1.00D-01 BMatC= 2.98D-06 BMatP= 8.64D-05
 IDIUse=3 WtCom= 9.97D-01 WtEn= 3.02D-03
 Coeff-Com:  0.306D+00-0.872D+00 0.157D+01
 Coeff-En:   0.000D+00 0.000D+00 0.100D+01
 Coeff:      0.306D+00-0.869D+00 0.156D+01
 Gap=     0.355 Goal=   None    Shift=    0.000
 RMSDP=3.76D-04 MaxDP=2.27D-03 DE=-5.77D-04 OVMax= 3.01D-03

 Cycle   4  Pass 1  IDiag  3:
 E= 0.186777854538377     Delta-E=       -0.000024147128 Rises=F Damp=F
 DIIS: error= 5.32D-05 at cycle   4 NSaved=   4.
 NSaved= 4 IEnMin= 4 EnMin= 0.186777854538377     IErMin= 4 ErrMin= 5.32D-05
 ErrMax= 5.32D-05  0.00D+00 EMaxC= 1.00D-01 BMatC= 1.35D-07 BMatP= 2.98D-06
 IDIUse=1 WtCom= 1.00D+00 WtEn= 0.00D+00
 Coeff-Com: -0.174D+00 0.502D+00-0.101D+01 0.168D+01
 Coeff:     -0.174D+00 0.502D+00-0.101D+01 0.168D+01
 Gap=     0.355 Goal=   None    Shift=    0.000
 RMSDP=9.07D-05 MaxDP=5.26D-04 DE=-2.41D-05 OVMax= 1.15D-03

 Cycle   5  Pass 1  IDiag  3:
 E= 0.186776540007543     Delta-E=       -0.000001314531 Rises=F Damp=F
 DIIS: error= 1.21D-05 at cycle   5 NSaved=   5.
 NSaved= 5 IEnMin= 5 EnMin= 0.186776540007543     IErMin= 5 ErrMin= 1.21D-05
 ErrMax= 1.21D-05  0.00D+00 EMaxC= 1.00D-01 BMatC= 8.75D-09 BMatP= 1.35D-07
 IDIUse=1 WtCom= 1.00D+00 WtEn= 0.00D+00
 Coeff-Com:  0.332D-01-0.970D-01 0.208D+00-0.527D+00 0.138D+01
 Coeff:      0.332D-01-0.970D-01 0.208D+00-0.527D+00 0.138D+01
 Gap=     0.355 Goal=   None    Shift=    0.000
 RMSDP=2.30D-05 MaxDP=1.29D-04 DE=-1.31D-06 OVMax= 3.01D-04

 Cycle   6  Pass 1  IDiag  3:
 E= 0.186776453229413     Delta-E=       -0.000000086778 Rises=F Damp=F
 DIIS: error= 3.46D-06 at cycle   6 NSaved=   6.
 NSaved= 6 IEnMin= 6 EnMin= 0.186776453229413     IErMin= 6 ErrMin= 3.46D-06
 ErrMax= 3.46D-06  0.00D+00 EMaxC= 1.00D-01 BMatC= 8.04D-10 BMatP= 8.75D-09
 IDIUse=1 WtCom= 1.00D+00 WtEn= 0.00D+00
 Coeff-Com:  0.105D-01-0.303D-01 0.589D-01-0.708D-01-0.266D+00 0.130D+01
 Coeff:      0.105D-01-0.303D-01 0.589D-01-0.708D-01-0.266D+00 0.130D+01
 Gap=     0.355 Goal=   None    Shift=    0.000
 RMSDP=7.18D-06 MaxDP=3.62D-05 DE=-8.68D-08 OVMax= 8.58D-05

 Cycle   7  Pass 1  IDiag  3:
 E= 0.186776445560511     Delta-E=       -0.000000007669 Rises=F Damp=F
 DIIS: error= 9.81D-07 at cycle   7 NSaved=   7.
 NSaved= 7 IEnMin= 7 EnMin= 0.186776445560511     IErMin= 7 ErrMin= 9.81D-07
 ErrMax= 9.81D-07  0.00D+00 EMaxC= 1.00D-01 BMatC= 5.66D-11 BMatP= 8.04D-10
 IDIUse=1 WtCom= 1.00D+00 WtEn= 0.00D+00
 Coeff-Com: -0.489D-02 0.141D-01-0.283D-01 0.468D-01 0.324D-01-0.511D+00
 Coeff-Com:  0.145D+01
 Coeff:     -0.489D-02 0.141D-01-0.283D-01 0.468D-01 0.324D-01-0.511D+00
 Coeff:      0.145D+01
 Gap=     0.355 Goal=   None    Shift=    0.000
 RMSDP=1.79D-06 MaxDP=1.09D-05 DE=-7.67D-09 OVMax= 1.37D-05

 Cycle   8  Pass 1  IDiag  3:
 E= 0.186776445042781     Delta-E=       -0.000000000518 Rises=F Damp=F
 DIIS: error= 3.12D-07 at cycle   8 NSaved=   8.
 NSaved= 8 IEnMin= 8 EnMin= 0.186776445042781     IErMin= 8 ErrMin= 3.12D-07
 ErrMax= 3.12D-07  0.00D+00 EMaxC= 1.00D-01 BMatC= 4.32D-12 BMatP= 5.66D-11
 IDIUse=1 WtCom= 1.00D+00 WtEn= 0.00D+00
 Coeff-Com:  0.178D-02-0.512D-02 0.103D-01-0.182D-01-0.318D-02 0.181D+00
 Coeff-Com: -0.717D+00 0.155D+01
 Coeff:      0.178D-02-0.512D-02 0.103D-01-0.182D-01-0.318D-02 0.181D+00
 Coeff:     -0.717D+00 0.155D+01
 Gap=     0.355 Goal=   None    Shift=    0.000
 RMSDP=5.18D-07 MaxDP=3.30D-06 DE=-5.18D-10 OVMax= 5.80D-06

 Cycle   9  Pass 1  IDiag  3:
 E= 0.186776444999595     Delta-E=       -0.000000000043 Rises=F Damp=F
 DIIS: error= 1.02D-07 at cycle   9 NSaved=   9.
 NSaved= 9 IEnMin= 9 EnMin= 0.186776444999595     IErMin= 9 ErrMin= 1.02D-07
 ErrMax= 1.02D-07  0.00D+00 EMaxC= 1.00D-01 BMatC= 3.59D-13 BMatP= 4.32D-12
 IDIUse=1 WtCom= 1.00D+00 WtEn= 0.00D+00
 Coeff-Com: -0.482D-03 0.138D-02-0.274D-02 0.486D-02 0.199D-02-0.574D-01
 Coeff-Com:  0.246D+00-0.746D+00 0.155D+01
 Coeff:     -0.482D-03 0.138D-02-0.274D-02 0.486D-02 0.199D-02-0.574D-01
 Coeff:      0.246D+00-0.746D+00 0.155D+01
 Gap=     0.355 Goal=   None    Shift=    0.000
 RMSDP=1.66D-07 MaxDP=9.17D-07 DE=-4.32D-11 OVMax= 2.32D-06

 Cycle  10  Pass 1  IDiag  3:
 E= 0.186776444995701     Delta-E=       -0.000000000004 Rises=F Damp=F
 DIIS: error= 3.39D-08 at cycle  10 NSaved=  10.
 NSaved=10 IEnMin=10 EnMin= 0.186776444995701     IErMin=10 ErrMin= 3.39D-08
 ErrMax= 3.39D-08  0.00D+00 EMaxC= 1.00D-01 BMatC= 3.87D-14 BMatP= 3.59D-13
 IDIUse=1 WtCom= 1.00D+00 WtEn= 0.00D+00
 Coeff-Com:  0.117D-03-0.331D-03 0.645D-03-0.112D-02-0.132D-02 0.194D-01
 Coeff-Com: -0.853D-01 0.314D+00-0.936D+00 0.169D+01
 Coeff:      0.117D-03-0.331D-03 0.645D-03-0.112D-02-0.132D-02 0.194D-01
 Coeff:     -0.853D-01 0.314D+00-0.936D+00 0.169D+01
 Gap=     0.355 Goal=   None    Shift=    0.000
 RMSDP=6.00D-08 MaxDP=3.82D-07 DE=-3.89D-12 OVMax= 8.80D-07

 Cycle  11  Pass 1  IDiag  3:
 E= 0.186776444995232     Delta-E=        0.000000000000 Rises=F Damp=F
 DIIS: error= 7.72D-09 at cycle  11 NSaved=  11.
 NSaved=11 IEnMin=11 EnMin= 0.186776444995232     IErMin=11 ErrMin= 7.72D-09
 ErrMax= 7.72D-09  0.00D+00 EMaxC= 1.00D-01 BMatC= 3.13D-15 BMatP= 3.87D-14
 IDIUse=1 WtCom= 1.00D+00 WtEn= 0.00D+00
 Coeff-Com: -0.152D-04 0.414D-04-0.774D-04 0.137D-03 0.438D-03-0.437D-02
 Coeff-Com:  0.183D-01-0.738D-01 0.264D+00-0.737D+00 0.153D+01
 Coeff:     -0.152D-04 0.414D-04-0.774D-04 0.137D-03 0.438D-03-0.437D-02
 Coeff:      0.183D-01-0.738D-01 0.264D+00-0.737D+00 0.153D+01
 Gap=     0.355 Goal=   None    Shift=    0.000
 RMSDP=1.74D-08 MaxDP=1.08D-07 DE=-4.69D-13 OVMax= 2.41D-07

 Cycle  12  Pass 1  IDiag  3:
 E= 0.186776444994933     Delta-E=        0.000000000000 Rises=F Damp=F
 DIIS: error= 1.89D-09 at cycle  12 NSaved=  12.
 NSaved=12 IEnMin=12 EnMin= 0.186776444994933     IErMin=12 ErrMin= 1.89D-09
 ErrMax= 1.89D-09  0.00D+00 EMaxC= 1.00D-01 BMatC= 2.00D-16 BMatP= 3.13D-15
 IDIUse=1 WtCom= 1.00D+00 WtEn= 0.00D+00
 Coeff-Com:  0.693D-05-0.191D-04 0.361D-04-0.609D-04-0.179D-03 0.172D-02
 Coeff-Com: -0.658D-02 0.231D-01-0.776D-01 0.237D+00-0.682D+00 0.150D+01
 Coeff:      0.693D-05-0.191D-04 0.361D-04-0.609D-04-0.179D-03 0.172D-02
 Coeff:     -0.658D-02 0.231D-01-0.776D-01 0.237D+00-0.682D+00 0.150D+01
 Gap=     0.355 Goal=   None    Shift=    0.000
 RMSDP=3.79D-09 MaxDP=2.03D-08 DE=-2.98D-13 OVMax= 3.95D-08

 Cycle  13  Pass 2  IDiag  1:
 SCF Done:  E(RAM1) =  0.186776444995     A.U. after   13 cycles
            NFock= 12  Conv=0.38D-08     -V/T= 1.0131
 KE=-1.427735973299D+01 PE=-1.531320799858D+02 EE= 7.523997563151D+01
 Leave Link  502 at Fri Mar 25 08:42:06 2016, MaxMem=    33554432 cpu:         0.0
 (Enter /opt/g09/g09/l701.exe)
 Compute integral first derivatives.
 ... and contract with generalized density number  0.
 Leave Link  701 at Fri Mar 25 08:42:06 2016, MaxMem=    33554432 cpu:         0.0
 (Enter /opt/g09/g09/l702.exe)
 L702 exits ... SP integral derivatives will be done elsewhere.
 Leave Link  702 at Fri Mar 25 08:42:06 2016, MaxMem=    33554432 cpu:         0.0
 (Enter /opt/g09/g09/l703.exe)
 Compute integral first derivatives, UseDBF=F ICtDFT=           0.
 Integral derivatives from FoFJK, PRISM(SPDF).
 Calling FoFJK, ICntrl=      2127 FMM=F ISym2X=0 I1Cent= 0 IOpClX= 0 NMat=1 NMatS=1 NMatT=0.
 FoFJK:  IHMeth= 8 ICntrl=    2127 DoSepK=F KAlg= 0 I1Cent=   0 FoldK=F
 IRaf=         0 NMat=   1 IRICut=       1 DoRegI=T DoRafI=F ISym2E= 0.
 FoFCou: FMM=F IPFlag=           0 FMFlag=      100000 FMFlg1=         800
         NFxFlg=           0 DoJE=F BraDBF=F KetDBF=F FulRan=T
         wScrn=  0.000000 ICntrl=    2127 IOpCl=  0 I1Cent=           0 NGrid=           0
         NMat0=    1 NMatS0=      1 NMatT0=    0 NMatD0=    1 NMtDS0=    0 NMtDT0=    0
 Symmetry not used in FoFCou.
 Leave Link  703 at Fri Mar 25 08:42:06 2016, MaxMem=    33554432 cpu:         0.0
 (Enter /opt/g09/g09/l716.exe)
 Dipole        =-1.33399965D-01-8.33067879D-03-7.69645573D-03
 ***** Axes restored to original set *****
 -------------------------------------------------------------------
 Center     Atomic                   Forces (Hartrees/Bohr)
 Number     Number              X              Y              Z
 -------------------------------------------------------------------
      1        6           0.000836407   -0.000523061   -0.002747360
      2        6           0.002140323   -0.004467898    0.001795647
      3        6          -0.004550947    0.002800202   -0.000694709
      4        6           0.005331767    0.003073535    0.000355942
      5        1          -0.001803032   -0.002157101    0.000090687
      6        1           0.000414810   -0.001368132    0.000556324
      7        1          -0.001182503    0.000225361   -0.000552723
      8        1           0.000469906   -0.000116234    0.001208398
      9       16          -0.001656730    0.002533327   -0.000012206
 -------------------------------------------------------------------
 Cartesian Forces:  Max     0.005331767 RMS     0.002161977
 Leave Link  716 at Fri Mar 25 08:42:06 2016, MaxMem=    33554432 cpu:         0.0
 (Enter /opt/g09/g09/l103.exe)

 GradGradGradGradGradGradGradGradGradGradGradGradGradGradGradGradGradGrad
 Berny optimization.
 Using GEDIIS/GDIIS optimizer.
 FormGI is forming the generalized inverse of G from B-inverse, IUseBI=4.
 Internal  Forces:  Max     0.003826817 RMS     0.001182971
 Search for a local minimum.
 Step number   3 out of a maximum of   48
 All quantities printed in internal units (Hartrees-Bohrs-Radians)
 RMS Force = .11830D-02 SwitMx=.10000D-02 MixMth= 1
 Mixed Optimization -- RFO/linear search
 Update second derivatives using D2CorX and points    2    3
 DE= -1.88D-03 DEPred=-1.85D-03 R= 1.02D+00
 TightC=F SS=  1.41D+00  RLast= 3.70D-01 DXNew= 8.4853D-01 1.1094D+00
 Trust test= 1.02D+00 RLast= 3.70D-01 DXMaxT set to 8.49D-01
 ITU=  1  1  0
 Use linear search instead of GDIIS.
     Eigenvalues ---    0.01393   0.01799   0.01833   0.02004   0.02127
     Eigenvalues ---    0.02631   0.13836   0.15993   0.15998   0.16033
[...]
     24 -0.268003D-04  0.000000D+00  0.673005D-05 -0.261087D-05 -0.325973D-05
     25 -0.107649D-04  0.000000D+00  0.359197D-05  0.000000D+00  0.307226D-05
     26 -0.276769D-04  0.114283D-05  0.954943D-05  0.000000D+00  0.752346D-05
     27  0.139338D-04  0.100667D-05 -0.870567D-05  0.148209D-05  0.340316D-05
     28 -0.460918D-05  0.000000D+00  0.481151D-05  0.000000D+00  0.724014D-05
     29  0.147955D-04  0.000000D+00 -0.145966D-04  0.000000D+00 -0.484463D-05
     30 -0.374757D-05  0.000000D+00 -0.107944D-05 -0.154878D-05 -0.100765D-05
     31  0.688727D-05  0.000000D+00 -0.431616D-05  0.000000D+00 -0.218617D-05
     32 -0.884174D-05  0.000000D+00  0.000000D+00  0.000000D+00  0.000000D+00
     33 -0.171352D-04  0.000000D+00  0.130510D-04  0.000000D+00  0.465657D-05
     34 -0.287818D-05  0.000000D+00  0.000000D+00  0.131873D-05  0.000000D+00
     35 -0.603677D-05  0.000000D+00  0.512485D-05  0.000000D+00  0.228615D-05
     36  0.822029D-05  0.000000D+00 -0.794839D-05  0.000000D+00 -0.190153D-05
     37 -0.228758D-05  0.000000D+00 -0.182088D-05  0.114546D-05  0.186041D-05
     38  0.000000D+00 -0.254992D-05 -0.562774D-05  0.000000D+00  0.000000D+00
               11            12            13            14            15 
     11  0.687886D-01
     12 -0.363395D-01  0.694063D-01
     13 -0.881438D-02 -0.885134D-02  0.568386D-01
     14  0.139569D-01  0.162137D-01 -0.377165D-01  0.657026D-01
     15 -0.514250D-02 -0.736239D-02 -0.191221D-01 -0.279861D-01  0.471083D-01
     16 -0.182696D-02  0.271888D-02  0.327555D-02 -0.356291D-02  0.287358D-03
     17  0.610351D-02 -0.289769D-02 -0.354414D-02  0.573407D-02 -0.218993D-02
     18 -0.427655D-02  0.178804D-03  0.268592D-03 -0.217117D-02  0.190258D-02
     19  0.175398D-01  0.176416D-01 -0.892502D-03 -0.320991D-02  0.410241D-02
     20 -0.904194D-02 -0.860293D-02  0.271986D-02 -0.289331D-02  0.173446D-03
     21 -0.849786D-02 -0.903865D-02 -0.182736D-02  0.610322D-02 -0.427586D-02
     22 -0.515111D-02  0.210913D-02  0.244874D-01 -0.380562D-01  0.135688D-01
     23  0.145274D-04 -0.117541D-04 -0.184361D-05  0.397726D-05  0.000000D+00
     24 -0.303128D-05  0.000000D+00 -0.202019D-05 -0.288757D-05  0.228132D-05
     25 -0.200222D-04  0.242189D-04  0.525280D-05 -0.268246D-05  0.000000D+00
     26 -0.375809D-04  0.352618D-04  0.507621D-05 -0.954729D-05  0.233719D-05
     27  0.761448D-05 -0.318299D-05  0.156815D-05 -0.228013D-05  0.191577D-05
     28  0.121396D-04 -0.140766D-04  0.498621D-05 -0.594601D-05  0.161113D-05
     29 -0.348745D-04  0.357439D-04 -0.461654D-05  0.455694D-05  0.000000D+00
     30 -0.303494D-04  0.248503D-04 -0.119848D-05  0.000000D+00  0.000000D+00
     31  0.000000D+00  0.567522D-05  0.247000D-05  0.256747D-05 -0.248343D-05
     32 -0.149065D-04  0.164427D-04 -0.121301D-04  0.000000D+00  0.108936D-04
     33  0.000000D+00 -0.759004D-05  0.000000D+00 -0.175658D-05  0.000000D+00
     34 -0.391006D-05  0.384320D-05 -0.236140D-05  0.000000D+00  0.111811D-05
     35 -0.112476D-04  0.434784D-05  0.298050D-05  0.000000D+00 -0.178893D-05
     36 -0.158748D-04  0.157811D-04  0.000000D+00  0.239368D-05  0.000000D+00
     37  0.480614D-05 -0.606225D-05 -0.276651D-05 -0.185486D-05  0.272374D-05
     38 -0.641200D-05  0.433009D-05 -0.126275D-05  0.000000D+00  0.107492D-05
               16            17            18            19            20 
     16  0.567854D-01
     17 -0.377242D-01  0.657605D-01
     18 -0.190612D-01 -0.280362D-01  0.470974D-01
     19  0.176587D-01 -0.301793D-01  0.125206D-01  0.655231D-01
     20 -0.884980D-02  0.162274D-01 -0.737759D-02 -0.330835D-01  0.694192D-01
     21 -0.880888D-02  0.139519D-01 -0.514304D-02 -0.324396D-01 -0.363357D-01
     22  0.245204D-01 -0.381094D-01  0.135890D-01  0.304754D-02  0.210453D-02
     23 -0.218067D-05  0.254887D-05 -0.118674D-05  0.535052D-05 -0.384844D-05
     24  0.000000D+00  0.171113D-05 -0.130455D-05  0.493620D-05 -0.170283D-05
     25 -0.266325D-05  0.000000D+00  0.198304D-05 -0.325846D-05  0.238465D-05
     26  0.000000D+00  0.000000D+00  0.186523D-05 -0.367278D-05  0.453026D-05
     27  0.349999D-05 -0.495278D-05  0.264437D-05  0.000000D+00  0.000000D+00
     28 -0.274005D-05  0.000000D+00  0.255331D-05 -0.355423D-05  0.613048D-05
     29  0.715769D-05 -0.941746D-05  0.290393D-05  0.715394D-05 -0.425042D-05
     30  0.000000D+00 -0.355648D-05  0.281287D-05  0.343852D-05  0.111805D-05
     31 -0.178525D-05 -0.143021D-05  0.133800D-05  0.000000D+00  0.000000D+00
     32  0.000000D+00 -0.181782D-05  0.146879D-05  0.105916D-05  0.000000D+00
     33 -0.693479D-05  0.721644D-05  0.164958D-05 -0.662781D-05  0.000000D+00
     34  0.000000D+00  0.121551D-05  0.157107D-05 -0.242742D-05  0.644355D-05
     35 -0.176786D-05 -0.227133D-05  0.144026D-05  0.000000D+00  0.000000D+00
     36  0.479783D-05 -0.827226D-05  0.136176D-05  0.357679D-05  0.553543D-05
     37  0.000000D+00  0.350143D-05 -0.181433D-05 -0.404183D-05  0.366728D-05
     38 -0.872281D-05 -0.186057D-05  0.897083D-05  0.000000D+00  0.349208D-05
               21            22            23            24            25 
     21  0.687753D-01
     22 -0.515206D-02  0.700761D-01
     23 -0.184646D-05 -0.358308D-05  0.808594D-02
     24 -0.395005D-05  0.000000D+00 -0.645350D-04  0.109071D-01
     25  0.000000D+00  0.187988D-05  0.316511D-02 -0.704296D-02  0.104094D-01
     26 -0.116716D-05  0.592343D-05 -0.498537D-02  0.392870D-02  0.201303D-03
     27  0.000000D+00  0.199979D-05 -0.295395D-02 -0.798266D-02  0.485410D-02
     28 -0.319377D-05  0.000000D+00 -0.819210D-03 -0.354010D-02  0.446592D-02
     29 -0.208009D-05  0.198923D-05  0.180699D-02 -0.123095D-02 -0.215478D-02
     30 -0.556787D-05  0.000000D+00  0.394174D-02  0.321161D-02 -0.254296D-02
     31  0.000000D+00  0.000000D+00  0.208802D-02 -0.858119D-02  0.574502D-02
     32 -0.183442D-05  0.116261D-05 -0.537490D-02  0.146492D-02 -0.360191D-02
     33  0.571633D-05 -0.315616D-05  0.987401D-03  0.444414D-02 -0.122145D-02
     34 -0.288612D-05 -0.118699D-05 -0.122061D-02 -0.150910D-03 -0.819954D-03
     35  0.000000D+00  0.247249D-05  0.444375D-02  0.928700D-03 -0.154225D-03
     36 -0.830244D-05  0.444166D-05  0.223574D-02 -0.366635D-02  0.247275D-03
     37  0.000000D+00  0.000000D+00 -0.369982D-02  0.422729D-02 -0.309757D-02
     38 -0.301936D-05  0.201398D-05 -0.540902D-03  0.101437D-02 -0.212218D-02
               26            27            28            29            30 
     26  0.911537D-02
     27 -0.174613D-03  0.107691D-01
     28  0.174503D-02  0.322390D-02  0.705184D-02
     29 -0.519273D-02  0.321474D-02 -0.188955D-02  0.704785D-02
     30 -0.327308D-02 -0.433050D-02  0.193839D-02  0.194356D-02  0.821245D-02
     31 -0.492418D-02  0.293598D-02  0.235550D-02 -0.602208D-03 -0.118269D-02
     32  0.323791D-02 -0.166852D-02 -0.135860D-03 -0.338388D-02 -0.185122D-02
     33  0.223528D-02 -0.295213D-02  0.180665D-02 -0.815043D-03  0.394373D-02
     34  0.249748D-03  0.485208D-02 -0.215269D-02  0.446444D-02 -0.254032D-02
     35 -0.366928D-02 -0.798367D-02 -0.123981D-02 -0.353506D-02  0.320879D-02
     36 -0.565481D-02 -0.179458D-03 -0.519915D-02  0.174443D-02 -0.327526D-02
     37  0.482954D-02  0.293878D-02 -0.596992D-03  0.235609D-02 -0.117968D-02
     38 -0.566906D-03 -0.165977D-02 -0.338129D-02 -0.129856D-03 -0.185138D-02
               31            32            33            34            35 
     31  0.902147D-02
     32 -0.747702D-03  0.551513D-02
     33 -0.370036D-02 -0.535231D-03  0.808779D-02
     34 -0.309996D-02 -0.212049D-02  0.316568D-02  0.104109D-01
     35  0.422739D-02  0.100886D-02 -0.669827D-04 -0.704231D-02  0.109072D-01
     36  0.482779D-02 -0.576406D-03 -0.498910D-02  0.202886D-03  0.393187D-02
     37 -0.742087D-02 -0.162470D-03  0.209028D-02  0.574742D-02 -0.858344D-02
     38 -0.175333D-03  0.124874D-02 -0.536274D-02 -0.358213D-02  0.144638D-02
               36            37            38 
     36  0.912386D-02
     37 -0.492630D-02  0.902506D-02
     38  0.322699D-02 -0.730139D-03  0.549303D-02
 Leave Link  716 at Fri Mar 25 08:42:07 2016, MaxMem=    33554432 cpu:         0.0
 (Enter /opt/g09/g09/l103.exe)

 GradGradGradGradGradGradGradGradGradGradGradGradGradGradGradGradGradGrad
 Berny optimization.
 Red2BG is reusing G-inverse.
 Internal  Forces:  Max     0.056022020 RMS     0.015805004
 Search for a local minimum.
 Step number   1 out of a maximum of    2
 All quantities printed in internal units (Hartrees-Bohrs-Radians)
 Second derivative matrix not updated -- analytic derivatives used.
 ITU=  0
     Eigenvalues ---   -0.08687   0.00827   0.00954   0.02186   0.02270
     Eigenvalues ---    0.03506   0.04175   0.06433   0.06969   0.09857
     Eigenvalues ---    0.10346   0.12364   0.16686   0.16787   0.34012
     Eigenvalues ---    0.34086   0.35451   0.35655   0.42984   0.43879
     Eigenvalues ---    0.71968
 Eigenvalue     1 is  -8.69D-02 should be greater than     0.000000 Eigenvector:
                          R8        R5        R6        R1        A7
   1                    0.65628  -0.65504  -0.20124   0.19993   0.10167
                          A4        A1        A10       A12       A2
   1                   -0.10125   0.08362  -0.08331   0.08075  -0.08054
 Quadratic step=5.619D-01 exceeds max=3.000D-01 adjusted using Lamda=-8.977D-02.
 Angle between NR and scaled steps=  14.13 degrees.
 Angle between quadratic step and forces=  32.28 degrees.
 Linear search not attempted -- first point.
 Iteration  1 RMS(Cart)=  0.02959841 RMS(Int)=  0.00098220
 Iteration  2 RMS(Cart)=  0.00127324 RMS(Int)=  0.00051535
 Iteration  3 RMS(Cart)=  0.00000046 RMS(Int)=  0.00051535
 ITry= 1 IFail=0 DXMaxC= 1.24D-01 DCOld= 1.00D+10 DXMaxT= 3.00D-01 DXLimC= 3.00D+00 Rises=F
 Variable       Old X    -DE/DX   Delta X   Delta X   Delta X     New X
                                 (Linear)    (Quad)   (Total)
    R1        2.56726   0.05602   0.00000   0.09792   0.09757   2.66483
    R2        2.72406  -0.03842   0.00000  -0.10741  -0.10823   2.61583
    R3        2.05957   0.00171   0.00000   0.00224   0.00224   2.06181
    R4        2.04054   0.00178   0.00000   0.00201   0.00201   2.04256
    R5        3.44034  -0.02261   0.00000  -0.13588  -0.13528   3.30506
    R6        2.56699   0.05600   0.00000   0.09800   0.09766   2.66464
    R7        2.04020   0.00188   0.00000   0.00224   0.00224   2.04244
    R8        3.44090  -0.02251   0.00000  -0.13575  -0.13515   3.30576
    R9        2.05918   0.00184   0.00000   0.00255   0.00255   2.06173
    A1        1.99876   0.00112   0.00000   0.00580   0.00463   2.00339
    A2        2.16789  -0.00004   0.00000  -0.01936  -0.01877   2.14912
    A3        2.11653  -0.00108   0.00000   0.01355   0.01414   2.13068
    A4        2.23980   0.00195   0.00000  -0.02388  -0.02395   2.21585
    A5        1.93065  -0.01035   0.00000  -0.04534  -0.04519   1.88546
    A6        2.11274   0.00840   0.00000   0.06921   0.06914   2.18187
    A7        2.24111   0.00188   0.00000  -0.02426  -0.02434   2.21677
    A8        1.93071  -0.01037   0.00000  -0.04546  -0.04531   1.88540
    A9        2.11137   0.00849   0.00000   0.06972   0.06965   2.18102
   A10        1.99854   0.00111   0.00000   0.00591   0.00473   2.00327
   A11        2.11609  -0.00103   0.00000   0.01375   0.01434   2.13043
   A12        2.16855  -0.00008   0.00000  -0.01966  -0.01907   2.14948
   A13        1.56611   0.01849   0.00000   0.07908   0.08114   1.64726
    D1        3.14120   0.00000   0.00000   0.00000   0.00001   3.14121
    D2       -0.00011  -0.00001   0.00000  -0.00002  -0.00002  -0.00013
    D3       -0.00153   0.00002   0.00000   0.00023   0.00022  -0.00131
    D4        3.14034   0.00002   0.00000   0.00020   0.00020   3.14054
    D5        0.00018   0.00001   0.00000   0.00001   0.00001   0.00019
    D6       -3.14124   0.00000   0.00000   0.00000   0.00000  -3.14124
    D7       -3.14031  -0.00002   0.00000  -0.00019  -0.00019  -3.14050
    D8        0.00145  -0.00002   0.00000  -0.00019  -0.00019   0.00127
    D9        0.00002   0.00000   0.00000   0.00002   0.00002   0.00004
   D10       -3.14132   0.00000   0.00000   0.00001   0.00001  -3.14131
   D11        3.14116   0.00000   0.00000   0.00006   0.00006   3.14121
   D12       -0.00061   0.00000   0.00000   0.00006   0.00006  -0.00055
   D13       -0.00016   0.00000   0.00000   0.00001   0.00001  -0.00015
   D14        3.14126   0.00000   0.00000   0.00002   0.00002   3.14127
   D15        0.00008   0.00000   0.00000  -0.00002  -0.00002   0.00006
   D16       -3.14126  -0.00001   0.00000  -0.00005  -0.00005  -3.14131
         Item               Value     Threshold  Converged?
 Maximum Force            0.056022     0.000450     NO 
 RMS     Force            0.015805     0.000300     NO 
 Maximum Displacement     0.124130     0.001800     NO 
 RMS     Displacement     0.029567     0.001200     NO 
 Predicted change in Energy=-1.639655D-02
 GradGradGradGradGradGradGradGradGradGradGradGradGradGradGradGradGradGrad

 Leave Link  103 at Fri Mar 25 08:42:07 2016, MaxMem=    33554432 cpu:         0.0
 (Enter /opt/g09/g09/l9999.exe)
 1\1\GINC-LINUX-CBNE\Freq\RAM1-Full\STO-3G\C4H4S1\DUSTIN\25-Mar-2016\0\
 \#P AM1(Input,Print) CIS(Singlets,NStates=0) pop(full) Geom=Checkpoint
  freq\\best1\\0,1\C,0.8709488904,-0.7014574372,0.0086673087\C,-0.37166
 34413,-1.250553571,0.0042410584\C,-0.3410737065,1.3175026985,0.0589764
 775\C,0.8881115526,0.7396266726,0.0392574657\H,1.826396769,1.293674222
 8,0.0452414029\H,-0.5878882103,2.3682583096,0.0832114384\H,-0.64188769
 74,-2.2957926216,-0.0167690908\H,1.7957021344,-1.2779836957,-0.0079919
 058\S,-1.6466962908,0.048463422,0.0395518448\\Version=ES64L-G09RevD.01
 \State=1-A\HF=0.1866202\RMSD=3.733e-09\RMSF=3.193e-02\ZeroPoint=0.0616
 104\Thermal=0.0663213\Dipole=0.8257668,-0.0105527,-0.0048777\DipoleDer
 iv=-0.4539353,-0.8683885,-0.0165909,-0.6746643,-0.7482182,-0.0074502,-
 0.0126091,-0.0065673,-0.2107415,0.8845906,1.6614,0.0304343,-0.1770546,
 0.0720426,-0.0001711,-0.0084058,-0.0106842,0.1263173,0.8402112,-1.6837
 547,-0.0396627,0.1570909,0.1083905,-0.0014344,-0.0008844,0.0097708,0.1
 266501,-0.4154223,0.8654037,0.0192791,0.6639894,-0.7911863,-0.016051,0
 .0152097,-0.0173713,-0.2118195,0.0804579,0.0630391,0.0016336,0.0362155
 ,0.0712348,-0.001507,0.0010977,-0.0017748,0.1317415,0.0340221,-0.07460
 68,-0.0010319,-0.040322,0.17278,0.0012092,-0.000305,0.0014425,0.128666
 8,0.0364363,0.077689,0.0022135,0.0434827,0.1698745,0.0006508,0.001498,
 0.0005729,0.1285288,0.0780905,-0.0632605,-0.0010112,-0.0361664,0.07362
 55,-0.0010096,-0.0005647,-0.0010347,0.1317893,-1.084451,0.0224788,0.00
 47363,0.0274288,0.8714566,0.0257632,0.004964,0.0256568,-0.3511331\Pola
 r=69.1034248,0.1177222,76.7095638,-0.3507783,1.4459621,9.0470078\PG=C0
 1 [X(C4H4S1)]\NImag=1\\0.81163583,-0.00848079,0.60138148,-0.00392765,0
 .00991894,0.13240700,-0.38451561,-0.05426226,0.00077485,0.39977584,-0.
 20747979,-0.12475021,-0.00043932,0.28372795,0.55266434,-0.00247416,-0.
 00132700,-0.04791604,0.00435302,0.00806982,0.09988079,-0.08465354,-0.0
 0083895,0.00053414,0.18180505,0.00295238,-0.00096592,0.38544094,0.0601
 0558,-0.04007435,-0.00137069,-0.00880231,-0.05762020,-0.00131634,-0.28
 030227,0.56582407,0.00183856,-0.00100102,0.00764024,-0.00124020,-0.001
 38682,0.00624169,-0.00773746,0.01171892,0.09995870,-0.03934041,-0.0009
 3892,-0.00027633,-0.08657435,-0.05898448,-0.00070649,-0.37751875,0.213
 41366,0.00655326,0.81192888,-0.00656317,-0.34814666,-0.00558999,0.0027
 6454,-0.03867147,-0.00099701,0.05894579,-0.13086943,-0.00214171,0.0045
 3478,0.59993489,-0.00039430,-0.00562403,-0.08281078,0.00059062,-0.0006
 4083,0.00767135,0.00330643,-0.00307576,-0.04798807,-0.00405072,0.00994
 217,0.13235624,0.00333844,-0.00216310,-0.00001956,-0.00583139,-0.00176
 111,0.00002223,-0.03337577,-0.01049831,0.00003465,-0.23520063,-0.11493
 006,-0.00124630,0.26936520,-0.02160719,-0.01941886,-0.00044064,-0.0058
 9130,-0.00366130,-0.00013163,0.01333691,0.00801245,-0.00010139,-0.1168
 6073,-0.10623843,-0.00067486,0.12968608,0.12508005,-0.00044621,-0.0005
 8619,0.00750443,-0.00004463,-0.00014969,0.00415198,0.00053000,0.000044
 88,0.00900878,-0.00127930,-0.00067609,-0.04067906,0.00122944,0.0014191
 7,0.02081362,-0.00678947,-0.00300772,0.00000680,0.00358459,0.00339725,
 0.00005497,-0.04102077,0.05784520,0.00125783,-0.00792735,0.02917900,0.
 00074640,0.00101351,-0.00004302,-0.00001628,0.05242070,-0.00005071,-0.
 00193948,-0.00015189,0.00017258,0.00337693,0.00005791,0.07177377,-0.30
 814868,-0.00623083,0.00793106,-0.01367287,-0.00058215,0.00036406,0.000
 29515,0.00003075,-0.07647995,0.33592664,0.00007132,-0.00013186,0.00516
 155,-0.00000776,0.00003795,0.00059333,0.00154164,-0.00614676,-0.040374
 79,0.00028907,-0.00072139,0.01112840,-0.00000611,0.00003392,-0.0012738
 4,-0.00185753,0.00732549,0.01873618,-0.00882761,-0.02936338,-0.0005153
 5,-0.04407501,-0.06365350,-0.00135265,0.00347232,-0.00339042,-0.000089
 15,-0.00671300,0.00313275,0.00013426,-0.00019983,-0.00030687,-0.000012
 48,0.00081534,0.00063565,0.00000042,0.05605875,-0.00805577,-0.01282162
 ,-0.00046832,-0.07756579,-0.30490634,-0.00526258,-0.00017230,0.0034467
 2,0.00006107,0.00016100,-0.00202588,-0.00015357,0.00022996,-0.00048805
 ,0.00001760,-0.00066988,-0.00066000,0.00002002,0.08269159,0.33212417,-
 0.00005056,-0.00034298,0.01114269,-0.00165806,-0.00534774,-0.04039486,
 -0.00000965,0.00007512,0.00060600,0.00006296,-0.00016077,0.00514238,-0
 .00000272,0.00001980,-0.00136691,-0.00002675,0.00001302,-0.00142053,0.
 00156375,0.00628492,0.01875026,-0.22929375,0.11775288,0.00341305,-0.03
 343663,0.01147735,0.00046957,-0.00565760,0.00181020,0.00009251,0.00391
 939,0.00155908,0.00004817,0.00045088,0.00004918,-0.00000704,-0.0002000
 6,-0.00023773,-0.00001123,0.00100315,-0.00037970,-0.00002001,0.2628119
 9,0.11962621,-0.11184879,-0.00208961,-0.01233421,0.00805195,0.00004975
 ,0.00595523,-0.00384930,-0.00020489,0.02101729,-0.01991513,-0.00068820
 ,-0.00006525,-0.00021971,0.00001608,0.00030057,-0.00048917,0.00001550,
 0.00002434,0.00030419,0.00003259,-0.13279846,0.13130536,0.00343008,-0.
 00206926,-0.04078376,-0.00000192,-0.00007344,0.00901714,0.00013852,-0.
 00016839,0.00415464,0.00048442,-0.00062991,0.00750254,-0.00000856,0.00
 001602,-0.00096744,-0.00000238,0.00001996,-0.00137285,-0.00000941,0.00
 003427,-0.00127156,-0.00401406,0.00298624,0.02091827,-0.06155404,-0.01
 869809,0.00001004,-0.03073222,0.03032395,0.00059943,-0.02849166,-0.030
 18135,-0.00071000,-0.06257391,0.02137761,0.00086544,0.00043959,0.00163
 697,0.00004650,-0.00189651,-0.00410873,-0.00001982,-0.00153412,0.00376
 090,0.00014105,0.00040263,-0.00172574,-0.00001669,0.18594007,0.0725055
 8,0.05761848,0.00063151,-0.12780907,-0.03448361,0.00085706,0.12834930,
 -0.03672121,-0.00071334,-0.07027361,0.05960494,0.00149723,-0.00086228,
 -0.00336131,-0.00011653,-0.01052146,-0.01468855,-0.00043288,0.01022986
 ,-0.01497320,-0.00057396,0.00076721,-0.00333941,-0.00011549,-0.0023855
 2,-0.00965624,0.00195345,0.00116374,0.00765476,-0.00276698,-0.00006965
 ,-0.03924513,0.00266335,0.00023929,-0.03924698,-0.00107737,0.00097508,
 0.00767709,-0.00000307,-0.00014045,0.00280859,-0.00016313,-0.00048240,
 0.00882247,0.00028069,-0.00053355,0.00881245,0.00002903,-0.00011753,0.
 00280317,-0.00091597,-0.00103452,0.03991285\\-0.04783958,-0.06632105,-
 0.00121116,0.07530374,0.01637057,-0.00006234,0.07487169,-0.01808264,-0
 .00084129,-0.04618856,0.06751016,0.00174044,-0.00181957,-0.00054313,-0
 .00001155,-0.00272387,-0.00257076,-0.00003126,-0.00261808,0.00251143,0
 .00005723,-0.00172096,0.00047944,0.00006321,-0.04726480,0.00064598,0.0
 0029672\\\@


 YOU CANNOT THROW TO THE GROUND THE LETTERS OF
 THE GREEK ALPHABET AND PICK UP THE ILIAD.
        - RUFUS CHOATE, 1799-1859
 Job cpu time:       0 days  0 hours  0 minutes  0.4 seconds.
 File lengths (MBytes):  RWF=      6 Int=      0 D2E=      0 Chk=      3 Scr=      1
 Normal termination of Gaussian 09 at Fri Mar 25 08:42:07 2016.
