 Entering Gaussian System, Link 0=g09
 Input=best.com
 Output=best.log
 Initial command:
 /opt/g09/g09/l1.exe "/opt/g09/scratch/Gau-7734.inp" -scrdir="/opt/g09/scratch/"
 Entering Link 1 = /opt/g09/g09/l1.exe PID=      7735.
  
 Copyright (c) 1988,1990,1992,1993,1995,1998,2003,2009,2013,
            Gaussian, Inc.  All Rights Reserved.
  
 This is part of the Gaussian(R) 09 program.  It is based on
 the Gaussian(R) 03 system (copyright 2003, Gaussian, Inc.),
 the Gaussian(R) 98 system (copyright 1998, Gaussian, Inc.),
 the Gaussian(R) 94 system (copyright 1995, Gaussian, Inc.),
 the Gaussian 92(TM) system (copyright 1992, Gaussian, Inc.),
 the Gaussian 90(TM) system (copyright 1990, Gaussian, Inc.),
 the Gaussian 88(TM) system (copyright 1988, Gaussian, Inc.),
 the Gaussian 86(TM) system (copyright 1986, Carnegie Mellon
 University), and the Gaussian 82(TM) system (copyright 1983,
 Carnegie Mellon University). Gaussian is a federally registered
 trademark of Gaussian, Inc.
  
 This software contains proprietary and confidential information,
 including trade secrets, belonging to Gaussian, Inc.
  
 This software is provided under written license and may be
 used, copied, transmitted, or stored only in accord with that
 written license.
  
 The following legend is applicable only to US Government
 contracts under FAR:
  
                    RESTRICTED RIGHTS LEGEND
  
 Use, reproduction and disclosure by the US Government is
 subject to restrictions as set forth in subparagraphs (a)
 and (c) of the Commercial Computer Software - Restricted
 Rights clause in FAR 52.227-19.
  
 Gaussian, Inc.
 340 Quinnipiac St., Bldg. 40, Wallingford CT 06492
  
  
 ---------------------------------------------------------------
 Warning -- This program may not be used in any manner that
 competes with the business of Gaussian, Inc. or will provide
 assistance to any competitor of Gaussian, Inc.  The licensee
 of this program is prohibited from giving any competitor of
 Gaussian, Inc. access to this program.  By using this program,
 the user acknowledges that Gaussian, Inc. is engaged in the
 business of creating and licensing software in the field of
 computational chemistry and represents and warrants to the
 licensee that it is not a competitor of Gaussian, Inc. and that
 it will not use this program in any manner prohibited above.
 ---------------------------------------------------------------
  

 Cite this work as:
 Gaussian 09, Revision D.01,
 M. J. Frisch, G. W. Trucks, H. B. Schlegel, G. E. Scuseria, 
 M. A. Robb, J. R. Cheeseman, G. Scalmani, V. Barone, B. Mennucci, 
 G. A. Petersson, H. Nakatsuji, M. Caricato, X. Li, H. P. Hratchian, 
 A. F. Izmaylov, J. Bloino, G. Zheng, J. L. Sonnenberg, M. Hada, 
 M. Ehara, K. Toyota, R. Fukuda, J. Hasegawa, M. Ishida, T. Nakajima, 
 Y. Honda, O. Kitao, H. Nakai, T. Vreven, J. A. Montgomery, Jr., 
 J. E. Peralta, F. Ogliaro, M. Bearpark, J. J. Heyd, E. Brothers, 
 K. N. Kudin, V. N. Staroverov, T. Keith, R. Kobayashi, J. Normand, 
 K. Raghavachari, A. Rendell, J. C. Burant, S. S. Iyengar, J. Tomasi, 
 M. Cossi, N. Rega, J. M. Millam, M. Klene, J. E. Knox, J. B. Cross, 
 V. Bakken, C. Adamo, J. Jaramillo, R. Gomperts, R. E. Stratmann, 
 O. Yazyev, A. J. Austin, R. Cammi, C. Pomelli, J. W. Ochterski, 
 R. L. Martin, K. Morokuma, V. G. Zakrzewski, G. A. Voth, 
 P. Salvador, J. J. Dannenberg, S. Dapprich, A. D. Daniels, 
 O. Farkas, J. B. Foresman, J. V. Ortiz, J. Cioslowski, 
 and D. J. Fox, Gaussian, Inc., Wallingford CT, 2013.
 
 ******************************************
 Gaussian 09:  ES64L-G09RevD.01 24-Apr-2013
                23-Mar-2016 
 ******************************************
 -----------------------
 #P AM1(Input,Print) opt
 -----------------------
 1/14=-1,18=20,19=15,26=1,38=1/1,3;
 2/9=110,12=2,17=6,18=5,40=1/2;
 3/5=2,16=1,25=1,41=700000,71=1,135=100,136=1/1,2,3;
 4/35=1/1;
 5/5=2,35=1,38=5/2;
 6/7=2,8=2,9=2,10=2,28=1/1;
 7//1,2,3,16;
 1/14=-1,18=20,19=15,26=1/3(2);
 2/9=110/2;
 99//99;
 2/9=110/2;
 3/5=2,16=1,25=1,41=700000,71=1,135=20,136=1/1,2,3;
 4/5=5,16=3,35=1/1;
 5/5=2,35=1,38=5/2;
 7//1,2,3,16;
 1/14=-1,18=20,19=15,26=1/3(-5);
 2/9=110/2;
 6/7=2,8=2,9=2,10=2,19=2,28=1/1;
 99/9=1/99;
 Leave Link    1 at Wed Mar 23 16:43:22 2016, MaxMem=           0 cpu:         0.0
 (Enter /opt/g09/g09/l101.exe)
 ----
 best
 ----
 Symbolic Z-matrix:
 Charge =  0 Multiplicity = 1
 6                     0.92758  -0.76396   0.0133 
 6                    -0.40181  -1.23926   0.01571 
 6                    -0.35557   1.29318   0.0581 
 6                     0.85734   0.67632   0.01284 
 1                     1.78354   1.32436  -0.10643 
 1                    -0.56982   2.37456   0.226 
 1                    -0.57991  -2.29341   0.12734 
 1                     1.77458  -1.27727  -0.03536 
 16                   -1.6251    0.06677  -0.11098 
 
 NAtoms=      9 NQM=        9 NQMF=       0 NMMI=      0 NMMIF=      0
                NMic=       0 NMicF=      0.
                    Isotopes and Nuclear Properties:
 (Nuclear quadrupole moments (NQMom) in fm**2, nuclear magnetic moments (NMagM)
  in nuclear magnetons)

  Atom         1           2           3           4           5           6           7           8           9
 IAtWgt=          12          12          12          12           1           1           1           1          32
 AtmWgt=  12.0000000  12.0000000  12.0000000  12.0000000   1.0078250   1.0078250   1.0078250   1.0078250  31.9720718
 NucSpn=           0           0           0           0           1           1           1           1           0
 AtZEff=   0.0000000   0.0000000   0.0000000   0.0000000   0.0000000   0.0000000   0.0000000   0.0000000   0.0000000
 NQMom=    0.0000000   0.0000000   0.0000000   0.0000000   0.0000000   0.0000000   0.0000000   0.0000000   0.0000000
 NMagM=    0.0000000   0.0000000   0.0000000   0.0000000   2.7928460   2.7928460   2.7928460   2.7928460   0.0000000
 AtZNuc=   6.0000000   6.0000000   6.0000000   6.0000000   1.0000000   1.0000000   1.0000000   1.0000000  16.0000000
 Leave Link  101 at Wed Mar 23 16:43:22 2016, MaxMem=    33554432 cpu:         0.0
 (Enter /opt/g09/g09/l103.exe)

 GradGradGradGradGradGradGradGradGradGradGradGradGradGradGradGradGradGrad
 Berny optimization.
 Initialization pass.
                           ----------------------------
                           !    Initial Parameters    !
                           ! (Angstroms and Degrees)  !
 --------------------------                            --------------------------
 ! Name  Definition              Value          Derivative Info.                !
 --------------------------------------------------------------------------------
 ! R1    R(1,2)                  1.4118         estimate D2E/DX2                !
 ! R2    R(1,4)                  1.442          estimate D2E/DX2                !
 ! R3    R(1,8)                  0.9916         estimate D2E/DX2                !
 ! R4    R(2,7)                  1.0749         estimate D2E/DX2                !
 ! R5    R(2,9)                  1.7939         estimate D2E/DX2                !
 ! R6    R(3,4)                  1.3615         estimate D2E/DX2                !
 ! R7    R(3,6)                  1.1151         estimate D2E/DX2                !
 ! R8    R(3,9)                  1.7732         estimate D2E/DX2                !
 ! R9    R(4,5)                  1.1367         estimate D2E/DX2                !
 ! A1    A(2,1,4)              106.8819         estimate D2E/DX2                !
 ! A2    A(2,1,8)              129.0589         estimate D2E/DX2                !
 ! A3    A(4,1,8)              123.9616         estimate D2E/DX2                !
 ! A4    A(1,2,7)              119.1016         estimate D2E/DX2                !
 ! A5    A(1,2,9)              113.383          estimate D2E/DX2                !
 ! A6    A(7,2,9)              127.4681         estimate D2E/DX2                !
 ! A7    A(4,3,6)              127.9901         estimate D2E/DX2                !
 ! A8    A(4,3,9)              108.7401         estimate D2E/DX2                !
 ! A9    A(6,3,9)              123.1961         estimate D2E/DX2                !
 ! A10   A(1,4,3)              119.7299         estimate D2E/DX2                !
 ! A11   A(1,4,5)              121.9911         estimate D2E/DX2                !
 ! A12   A(3,4,5)              118.1047         estimate D2E/DX2                !
 ! A13   A(2,9,3)               90.4917         estimate D2E/DX2                !
 ! D1    D(4,1,2,7)           -173.218          estimate D2E/DX2                !
 ! D2    D(4,1,2,9)              4.4654         estimate D2E/DX2                !
 ! D3    D(8,1,2,7)             10.3158         estimate D2E/DX2                !
 ! D4    D(8,1,2,9)           -172.0008         estimate D2E/DX2                !
 ! D5    D(2,1,4,3)              2.1081         estimate D2E/DX2                !
 ! D6    D(2,1,4,5)           -173.0011         estimate D2E/DX2                !
 ! D7    D(8,1,4,3)            178.8            estimate D2E/DX2                !
 ! D8    D(8,1,4,5)              3.6908         estimate D2E/DX2                !
 ! D9    D(1,2,9,3)             -7.3814         estimate D2E/DX2                !
 ! D10   D(7,2,9,3)            170.0681         estimate D2E/DX2                !
 ! D11   D(6,3,4,1)            169.3835         estimate D2E/DX2                !
 ! D12   D(6,3,4,5)            -15.3186         estimate D2E/DX2                !
 ! D13   D(9,3,4,1)             -7.542          estimate D2E/DX2                !
 ! D14   D(9,3,4,5)            167.7559         estimate D2E/DX2                !
 ! D15   D(4,3,9,2)              8.0011         estimate D2E/DX2                !
 ! D16   D(6,3,9,2)           -169.1034         estimate D2E/DX2                !
 --------------------------------------------------------------------------------
 Trust Radius=3.00D-01 FncErr=1.00D-07 GrdErr=1.00D-07
 Number of steps in this run=     48 maximum allowed number of steps=    100.
 GradGradGradGradGradGradGradGradGradGradGradGradGradGradGradGradGradGrad

 Leave Link  103 at Wed Mar 23 16:43:22 2016, MaxMem=    33554432 cpu:         0.0
 (Enter /opt/g09/g09/l202.exe)
                          Input orientation:                          
 ---------------------------------------------------------------------
 Center     Atomic      Atomic             Coordinates (Angstroms)
 Number     Number       Type             X           Y           Z
 ---------------------------------------------------------------------
      1          6           0        0.927581   -0.763957    0.013303
      2          6           0       -0.401806   -1.239261    0.015705
      3          6           0       -0.355573    1.293183    0.058104
      4          6           0        0.857342    0.676324    0.012843
      5          1           0        1.783538    1.324363   -0.106426
      6          1           0       -0.569816    2.374563    0.225998
      7          1           0       -0.579907   -2.293413    0.127337
      8          1           0        1.774584   -1.277269   -0.035359
      9         16           0       -1.625102    0.066773   -0.110984
 ---------------------------------------------------------------------
                    Distance matrix (angstroms):
                    1          2          3          4          5
     1  C    0.000000
     2  C    1.411804   0.000000
     3  C    2.424936   2.533221   0.000000
     4  C    1.441993   2.292363   1.361516   0.000000
     5  H    2.260106   3.370877   2.145656   1.136670   0.000000
     6  H    3.483927   3.623834   1.115110   2.228504   2.598404
     7  H    2.150525   1.074904   3.594272   3.301232   4.327681
     8  H    0.991600   2.177321   3.339690   2.158745   2.602618
     9  S    2.687331   1.793942   1.773239   2.559182   3.633233
                    6          7          8          9
     6  H    0.000000
     7  H    4.669029   0.000000
     8  H    4.347459   2.569562   0.000000
     9  S    2.559898   2.592240   3.656506   0.000000
 Stoichiometry    C4H4S
 Framework group  C1[X(C4H4S)]
 Deg. of freedom    21
 Full point group                 C1      NOp   1
 Largest Abelian subgroup         C1      NOp   1
 Largest concise Abelian subgroup C1      NOp   1
                         Standard orientation:                         
 ---------------------------------------------------------------------
 Center     Atomic      Atomic             Coordinates (Angstroms)
 Number     Number       Type             X           Y           Z
 ---------------------------------------------------------------------
      1          6           0        1.412848   -0.613052   -0.006610
      2          6           0        0.155161   -1.251781    0.052027
      3          6           0       -0.117464    1.266698    0.064097
      4          6           0        1.161205    0.806744   -0.020604
      5          1           0        1.993106    1.564201   -0.182529
      6          1           0       -0.460355    2.315065    0.227878
      7          1           0        0.115893   -2.318044    0.182261
      8          1           0        2.315576   -1.016400   -0.081871
      9         16           0       -1.227170   -0.112279   -0.042450
 ---------------------------------------------------------------------
 Rotational constants (GHZ):      7.7322978      5.1323058      3.0948640
 Leave Link  202 at Wed Mar 23 16:43:22 2016, MaxMem=    33554432 cpu:         0.0
 (Enter /opt/g09/g09/l301.exe)

 Semi-emprical parameters in input format:
 Method=8 CoreType=1 PeptideFC=0.0107799116 RIJScale=0.5291772086
 ****
 H       
 PQN=1 NValence=1 F0ss=0.4721553327 ZetaOverlap=1.2834277808 U=-0.4188110042
 Beta=-0.2268825074 CoreKO=1.0589197790 KON=0,0,0,1.0589197790 KON=1,0,1,1.0678914578
 KON=0,1,1,0.9991877409 KON=2,1,1,1.0482727950 EISol=-0.4188110042 EHeat=0.0830298228
 Alpha=1.5697008096
 GCore=0.0085277107,1.5022803151,2.2676713595
 GCore=0.0003481659,1.4001425905,3.4015070392
 GCore=-0.0012733648,0.5382405043,3.7912913148
 ****
 C       
 PQN=2,2 NValence=4 F0ss=0.4581203714 F0sp=0.4551311508 F0pp=0.3768030831 F2pp=0.1898715146
 G1sp=0.2577005483
 ZetaOverlap=1.7959818712,1.6022741171
 U=-1.9622063813,-1.4557965594
 Beta=-0.5913802681,-0.2836784428 DDN=0,1,0.8556599190 DDN=1,1,0.7190140577
 CoreKO=1.0843477999 KON=0,0,0,1.1742403799 KON=1,0,1,0.8219701441 KON=0,1,1,1.0386578133
 KON=2,1,1,0.7783928119 EISol=-4.4398989268 EHeat=0.2723305520 Alpha=1.4014062429
 DipHyp=1.7112213843
 GCore=0.0007885612,1.4001425905,3.0235618126
 GCore=0.0027097888,1.5281570636,3.4959933458
 GCore=-0.0014774999,1.3110293289,3.8274143832
 GCore=-0.0000873394,1.4001425905,5.0077742521
 ****
 S       
 PQN=3,3 NValence=6 F0ss=0.4364624013 F0sp=0.3183640731 F0pp=0.3136271218 F2pp=0.3456917167
 G1sp=0.2964482287
 ZetaOverlap=2.3061447044,1.6672630000,1.0255342438
 U=-2.0270271906,-1.7796976476
 Beta=-0.1387870751,-0.2905136336 DDN=0,1,0.8912644417 DDN=1,1,0.9573921396
 CoreKO=1.1543033468 KON=0,0,0,1.1590494055 KON=1,0,1,0.8464368816 KON=0,1,1,1.1643486136
 KON=2,1,1,0.7746001785 EISol=-7.0460287497 EHeat=0.1058151363 Alpha=1.2167665550
 DipHyp=1.7824263330
 GCore=-0.0301103914,1.2863644833,1.4919778348
 GCore=-0.0008024464,1.4979177626,2.8887298674
 GCore=0.0007987635,3.9199477853,3.7967867236
 ****
 
 Standard basis: VSTO-6G (5D, 7F)
 Ernie: Thresh=  0.10000D-02 Tol=  0.10000D-05 Strict=F.
  NNHCO=     0 NNPyr=     0 NCTC=     0               EPep=         0.000000000
    EC=        63.072431750  ECS=         1.617477556   EG=         0.119736919
   EHC=         0.000000000  EAt=       -26.480868474  AtH=         1.527256636
 EPDDG=         0.000000000  ECC=        64.809646224 EAtT=        28.008125109
 There are    24 symmetry adapted cartesian basis functions of A   symmetry.
 There are    24 symmetry adapted basis functions of A   symmetry.
    24 basis functions,   144 primitive gaussians,    24 cartesian basis functions
    13 alpha electrons       13 beta electrons
       nuclear repulsion energy        92.8177713335 Hartrees.
 IExCor=    0 DFT=F Ex=HF Corr=None ExCW=0 ScaHFX=  1.000000
 ScaDFX=  1.000000  1.000000  1.000000  1.000000 ScalE2=  1.000000  1.000000
 IRadAn=      0 IRanWt=     -1 IRanGd=            0 ICorTp=0 IEmpDi=  4
 Integral buffers will be    131072 words long.
 Regular integral format.
 Two-electron integral symmetry is turned off.
 Leave Link  301 at Wed Mar 23 16:43:22 2016, MaxMem=    33554432 cpu:         0.0
 (Enter /opt/g09/g09/l302.exe)
 Do NDO integrals.
 NPDir=0 NMtPBC=     1 NCelOv=     1 NCel=       1 NClECP=     1 NCelD=      1
         NCelK=      1 NCelE2=     1 NClLst=     1 CellRange=     0.0.
 One-electron integrals computed using PRISM.
 NBasis=    24 RedAO= F EigKep=  0.00D+00  NBF=    24
 NBsUse=    24 1.00D-04 EigRej=  0.00D+00 NBFU=    24
 Leave Link  302 at Wed Mar 23 16:43:22 2016, MaxMem=    33554432 cpu:         0.0
 (Enter /opt/g09/g09/l303.exe)
 DipDrv:  MaxL=1.
 Leave Link  303 at Wed Mar 23 16:43:22 2016, MaxMem=    33554432 cpu:         0.0
 (Enter /opt/g09/g09/l401.exe)
 Simple Huckel Guess.
 JPrj=0 DoOrth=F DoCkMO=F.
 Leave Link  401 at Wed Mar 23 16:43:22 2016, MaxMem=    33554432 cpu:         0.0
 (Enter /opt/g09/g09/l502.exe)
 Closed shell SCF:
 Using DIIS extrapolation, IDIIS=  1040.
 Overlap will be assumed to be unity.
 Two-electron integral symmetry not used.
 Keep J ints in memory in canonical form, NReq=888082.
 IVT=       79475 IEndB=       79475 NGot=    33554432 MDV=    33473473
 LenX=    33473473 LenY=    33472456
 Requested convergence on RMS density matrix=1.00D-08 within 128 cycles.
 Requested convergence on MAX density matrix=1.00D-06.
 Requested convergence on             energy=1.00D-06.
 No special actions if energy rises.
 FoFCou: FMM=F IPFlag=           0 FMFlag=           0 FMFlg1=           0
         NFxFlg=           0 DoJE=F BraDBF=F KetDBF=F FulRan=T
         wScrn=  0.000000 ICntrl=     600 IOpCl=  2 I1Cent=           0 NGrid=           0
         NMat0=    1 NMatS0=     54 NMatT0=    0 NMatD0=    1 NMtDS0=    0 NMtDT0=    0
 Symmetry not used in FoFCou.

 Cycle   1  Pass 1  IDiag  1:
 E= 0.438459104924476    
 DIIS: error= 3.11D-02 at cycle   1 NSaved=   1.
 NSaved= 1 IEnMin= 1 EnMin= 0.438459104924476     IErMin= 1 ErrMin= 3.11D-02
 ErrMax= 3.11D-02  0.00D+00 EMaxC= 1.00D-01 BMatC= 4.30D-02 BMatP= 4.30D-02
 IDIUse=3 WtCom= 6.89D-01 WtEn= 3.11D-01
 Coeff-Com:  0.100D+01
 Coeff-En:   0.100D+01
 Coeff:      0.100D+01
 GapD=    2.000 DampG=2.000 DampE=0.500 DampFc=1.0000 IDamp=-1.
 RMSDP=1.46D-02 MaxDP=1.02D-01              OVMax= 0.00D+00

 Cycle   2  Pass 1  IDiag  1:
 E= 0.316931534910907     Delta-E=       -0.121527570014 Rises=F Damp=F
 DIIS: error= 9.18D-03 at cycle   2 NSaved=   2.
 NSaved= 2 IEnMin= 2 EnMin= 0.316931534910907     IErMin= 2 ErrMin= 9.18D-03
 ErrMax= 9.18D-03  0.00D+00 EMaxC= 1.00D-01 BMatC= 3.91D-03 BMatP= 4.30D-02
 IDIUse=3 WtCom= 9.08D-01 WtEn= 9.18D-02
 Coeff-Com: -0.381D+00 0.138D+01
 Coeff-En:   0.000D+00 0.100D+01
 Coeff:     -0.346D+00 0.135D+01
 RMSDP=6.54D-03 MaxDP=4.91D-02 DE=-1.22D-01 OVMax= 0.00D+00

 Cycle   3  Pass 1  IDiag  3:
 E= 0.302408515007656     Delta-E=       -0.014523019903 Rises=F Damp=F
 DIIS: error= 1.62D-03 at cycle   3 NSaved=   3.
 NSaved= 3 IEnMin= 3 EnMin= 0.302408515007656     IErMin= 3 ErrMin= 1.62D-03
 ErrMax= 1.62D-03  0.00D+00 EMaxC= 1.00D-01 BMatC= 1.08D-04 BMatP= 3.91D-03
 IDIUse=3 WtCom= 9.84D-01 WtEn= 1.62D-02
 Coeff-Com:  0.869D-01-0.401D+00 0.131D+01
 Coeff-En:   0.000D+00 0.000D+00 0.100D+01
 Coeff:      0.855D-01-0.395D+00 0.131D+01
 Gap=     0.359 Goal=   None    Shift=    0.000
 RMSDP=1.74D-03 MaxDP=1.19D-02 DE=-1.45D-02 OVMax= 1.92D-02

 Cycle   4  Pass 1  IDiag  3:
 E= 0.301636833782609     Delta-E=       -0.000771681225 Rises=F Damp=F
 DIIS: error= 7.10D-04 at cycle   4 NSaved=   4.
 NSaved= 4 IEnMin= 4 EnMin= 0.301636833782609     IErMin= 4 ErrMin= 7.10D-04
 ErrMax= 7.10D-04  0.00D+00 EMaxC= 1.00D-01 BMatC= 1.21D-05 BMatP= 1.08D-04
 IDIUse=3 WtCom= 9.93D-01 WtEn= 7.10D-03
 Coeff-Com: -0.442D-02 0.398D-01-0.501D+00 0.147D+01
 Coeff-En:   0.000D+00 0.000D+00 0.000D+00 0.100D+01
 Coeff:     -0.439D-02 0.396D-01-0.497D+00 0.146D+01
 Gap=     0.361 Goal=   None    Shift=    0.000
 RMSDP=8.22D-04 MaxDP=5.98D-03 DE=-7.72D-04 OVMax= 9.80D-03

 Cycle   5  Pass 1  IDiag  3:
 E= 0.301520519495867     Delta-E=       -0.000116314287 Rises=F Damp=F
 DIIS: error= 2.93D-04 at cycle   5 NSaved=   5.
 NSaved= 5 IEnMin= 5 EnMin= 0.301520519495867     IErMin= 5 ErrMin= 2.93D-04
 ErrMax= 2.93D-04  0.00D+00 EMaxC= 1.00D-01 BMatC= 1.14D-06 BMatP= 1.21D-05
 IDIUse=3 WtCom= 9.97D-01 WtEn= 2.93D-03
 Coeff-Com: -0.504D-02 0.932D-02 0.235D+00-0.991D+00 0.175D+01
 Coeff-En:   0.000D+00 0.000D+00 0.000D+00 0.000D+00 0.100D+01
 Coeff:     -0.502D-02 0.929D-02 0.234D+00-0.988D+00 0.175D+01
 Gap=     0.362 Goal=   None    Shift=    0.000
 RMSDP=3.02D-04 MaxDP=2.77D-03 DE=-1.16D-04 OVMax= 3.47D-03

 Cycle   6  Pass 1  IDiag  3:
 E= 0.301508480181411     Delta-E=       -0.000012039314 Rises=F Damp=F
 DIIS: error= 5.05D-05 at cycle   6 NSaved=   6.
 NSaved= 6 IEnMin= 6 EnMin= 0.301508480181411     IErMin= 6 ErrMin= 5.05D-05
 ErrMax= 5.05D-05  0.00D+00 EMaxC= 1.00D-01 BMatC= 4.54D-08 BMatP= 1.14D-06
 IDIUse=1 WtCom= 1.00D+00 WtEn= 0.00D+00
 Coeff-Com:  0.258D-02-0.669D-02-0.813D-01 0.379D+00-0.823D+00 0.153D+01
 Coeff:      0.258D-02-0.669D-02-0.813D-01 0.379D+00-0.823D+00 0.153D+01
 Gap=     0.362 Goal=   None    Shift=    0.000
 RMSDP=5.66D-05 MaxDP=5.20D-04 DE=-1.20D-05 OVMax= 6.36D-04

 Cycle   7  Pass 1  IDiag  3:
 E= 0.301508078717077     Delta-E=       -0.000000401464 Rises=F Damp=F
 DIIS: error= 3.96D-06 at cycle   7 NSaved=   7.
 NSaved= 7 IEnMin= 7 EnMin= 0.301508078717077     IErMin= 7 ErrMin= 3.96D-06
 ErrMax= 3.96D-06  0.00D+00 EMaxC= 1.00D-01 BMatC= 1.14D-09 BMatP= 4.54D-08
 IDIUse=1 WtCom= 1.00D+00 WtEn= 0.00D+00
 Coeff-Com: -0.562D-03 0.131D-02 0.210D-01-0.939D-01 0.201D+00-0.434D+00
 Coeff-Com:  0.131D+01
 Coeff:     -0.562D-03 0.131D-02 0.210D-01-0.939D-01 0.201D+00-0.434D+00
 Coeff:      0.131D+01
 Gap=     0.362 Goal=   None    Shift=    0.000
 RMSDP=6.10D-06 MaxDP=4.12D-05 DE=-4.01D-07 OVMax= 6.67D-05

 Cycle   8  Pass 1  IDiag  3:
 E= 0.301508071100997     Delta-E=       -0.000000007616 Rises=F Damp=F
 DIIS: error= 1.18D-06 at cycle   8 NSaved=   8.
 NSaved= 8 IEnMin= 8 EnMin= 0.301508071100997     IErMin= 8 ErrMin= 1.18D-06
 ErrMax= 1.18D-06  0.00D+00 EMaxC= 1.00D-01 BMatC= 1.03D-10 BMatP= 1.14D-09
 IDIUse=1 WtCom= 1.00D+00 WtEn= 0.00D+00
 Coeff-Com:  0.107D-03-0.270D-03-0.276D-02 0.124D-01-0.251D-01 0.637D-01
 Coeff-Com: -0.483D+00 0.143D+01
 Coeff:      0.107D-03-0.270D-03-0.276D-02 0.124D-01-0.251D-01 0.637D-01
 Coeff:     -0.483D+00 0.143D+01
 Gap=     0.362 Goal=   None    Shift=    0.000
 RMSDP=1.96D-06 MaxDP=9.50D-06 DE=-7.62D-09 OVMax= 1.34D-05

 Cycle   9  Pass 1  IDiag  3:
 E= 0.301508070332915     Delta-E=       -0.000000000768 Rises=F Damp=F
 DIIS: error= 3.30D-07 at cycle   9 NSaved=   9.
 NSaved= 9 IEnMin= 9 EnMin= 0.301508070332915     IErMin= 9 ErrMin= 3.30D-07
 ErrMax= 3.30D-07  0.00D+00 EMaxC= 1.00D-01 BMatC= 7.69D-12 BMatP= 1.03D-10
 IDIUse=1 WtCom= 1.00D+00 WtEn= 0.00D+00
 Coeff-Com: -0.239D-04 0.637D-04 0.305D-03-0.128D-02 0.171D-02-0.831D-02
 Coeff-Com:  0.182D+00-0.766D+00 0.159D+01
 Coeff:     -0.239D-04 0.637D-04 0.305D-03-0.128D-02 0.171D-02-0.831D-02
 Coeff:      0.182D+00-0.766D+00 0.159D+01
 Gap=     0.362 Goal=   None    Shift=    0.000
 RMSDP=6.42D-07 MaxDP=3.22D-06 DE=-7.68D-10 OVMax= 6.26D-06

 Cycle  10  Pass 1  IDiag  3:
 E= 0.301508070259928     Delta-E=       -0.000000000073 Rises=F Damp=F
 DIIS: error= 1.07D-07 at cycle  10 NSaved=  10.
 NSaved=10 IEnMin=10 EnMin= 0.301508070259928     IErMin=10 ErrMin= 1.07D-07
 ErrMax= 1.07D-07  0.00D+00 EMaxC= 1.00D-01 BMatC= 7.43D-13 BMatP= 7.69D-12
 IDIUse=1 WtCom= 1.00D+00 WtEn= 0.00D+00
 Coeff-Com: -0.117D-05 0.273D-05 0.229D-03-0.117D-02 0.308D-02-0.418D-02
 Coeff-Com: -0.655D-01 0.348D+00-0.100D+01 0.172D+01
 Coeff:     -0.117D-05 0.273D-05 0.229D-03-0.117D-02 0.308D-02-0.418D-02
 Coeff:     -0.655D-01 0.348D+00-0.100D+01 0.172D+01
 Gap=     0.362 Goal=   None    Shift=    0.000
 RMSDP=2.45D-07 MaxDP=1.36D-06 DE=-7.30D-11 OVMax= 3.02D-06

 Cycle  11  Pass 1  IDiag  3:
 E= 0.301508070251813     Delta-E=       -0.000000000008 Rises=F Damp=F
 DIIS: error= 3.16D-08 at cycle  11 NSaved=  11.
 NSaved=11 IEnMin=11 EnMin= 0.301508070251813     IErMin=11 ErrMin= 3.16D-08
 ErrMax= 3.16D-08  0.00D+00 EMaxC= 1.00D-01 BMatC= 4.69D-14 BMatP= 7.43D-13
 IDIUse=1 WtCom= 1.00D+00 WtEn= 0.00D+00
 Coeff-Com:  0.526D-06-0.167D-05-0.117D-03 0.614D-03-0.168D-02 0.240D-02
 Coeff-Com:  0.354D-01-0.190D+00 0.567D+00-0.112D+01 0.171D+01
 Coeff:      0.526D-06-0.167D-05-0.117D-03 0.614D-03-0.168D-02 0.240D-02
 Coeff:      0.354D-01-0.190D+00 0.567D+00-0.112D+01 0.171D+01
 Gap=     0.362 Goal=   None    Shift=    0.000
 RMSDP=6.18D-08 MaxDP=3.59D-07 DE=-8.11D-12 OVMax= 8.85D-07

 Cycle  12  Pass 1  IDiag  3:
 E= 0.301508070251302     Delta-E=       -0.000000000001 Rises=F Damp=F
 DIIS: error= 8.59D-09 at cycle  12 NSaved=  12.
 NSaved=12 IEnMin=12 EnMin= 0.301508070251302     IErMin=12 ErrMin= 8.59D-09
 ErrMax= 8.59D-09  0.00D+00 EMaxC= 1.00D-01 BMatC= 4.06D-15 BMatP= 4.69D-14
 IDIUse=1 WtCom= 1.00D+00 WtEn= 0.00D+00
 Coeff-Com: -0.283D-06 0.128D-05 0.604D-04-0.335D-03 0.947D-03-0.136D-02
 Coeff-Com: -0.212D-01 0.113D+00-0.339D+00 0.687D+00-0.126D+01 0.182D+01
 Coeff:     -0.283D-06 0.128D-05 0.604D-04-0.335D-03 0.947D-03-0.136D-02
 Coeff:     -0.212D-01 0.113D+00-0.339D+00 0.687D+00-0.126D+01 0.182D+01
 Gap=     0.362 Goal=   None    Shift=    0.000
 RMSDP=1.99D-08 MaxDP=1.20D-07 DE=-5.12D-13 OVMax= 2.90D-07

 Cycle  13  Pass 1  IDiag  3:
 E= 0.301508070251529     Delta-E=        0.000000000000 Rises=F Damp=F
 DIIS: error= 1.53D-09 at cycle  13 NSaved=  13.
 NSaved=13 IEnMin=12 EnMin= 0.301508070251302     IErMin=13 ErrMin= 1.53D-09
 ErrMax= 1.53D-09  0.00D+00 EMaxC= 1.00D-01 BMatC= 1.60D-16 BMatP= 4.06D-15
 IDIUse=1 WtCom= 1.00D+00 WtEn= 0.00D+00
 Coeff-Com:  0.204D-06-0.873D-06-0.235D-04 0.134D-03-0.381D-03 0.557D-03
 Coeff-Com:  0.819D-02-0.438D-01 0.131D+00-0.268D+00 0.507D+00-0.857D+00
 Coeff-Com:  0.152D+01
 Coeff:      0.204D-06-0.873D-06-0.235D-04 0.134D-03-0.381D-03 0.557D-03
 Coeff:      0.819D-02-0.438D-01 0.131D+00-0.268D+00 0.507D+00-0.857D+00
 Coeff:      0.152D+01
 Gap=     0.362 Goal=   None    Shift=    0.000
 RMSDP=3.18D-09 MaxDP=1.84D-08 DE= 2.27D-13 OVMax= 4.34D-08

 Cycle  14  Pass 2  IDiag  1:
 SCF Done:  E(RAM1) =  0.301508070252     A.U. after   14 cycles
            NFock= 13  Conv=0.32D-08     -V/T= 1.0222
 KE=-1.358305142331D+01 PE=-1.547343407708D+02 EE= 7.580112893082D+01
 Leave Link  502 at Wed Mar 23 16:43:22 2016, MaxMem=    33554432 cpu:         0.0
 (Enter /opt/g09/g09/l601.exe)
 Copying SCF densities to generalized density rwf, IOpCl= 0 IROHF=0.

 **********************************************************************

            Population analysis using the SCF density.

 **********************************************************************

 Orbital symmetries:
       Occupied  (A) (A) (A) (A) (A) (A) (A) (A) (A) (A) (A) (A)
                 (A)
       Virtual   (A) (A) (A) (A) (A) (A) (A) (A) (A) (A) (A)
 The electronic state is 1-A.
 Alpha  occ. eigenvalues --   -1.36474  -1.07764  -0.89594  -0.73335  -0.67327
 Alpha  occ. eigenvalues --   -0.58399  -0.51104  -0.49804  -0.48748  -0.46184
 Alpha  occ. eigenvalues --   -0.40357  -0.33565  -0.33102
 Alpha virt. eigenvalues --    0.03072   0.04483   0.06197   0.09716   0.15900
 Alpha virt. eigenvalues --    0.16923   0.18459   0.19983   0.21636   0.23015
 Alpha virt. eigenvalues --    0.24031
          Condensed to atoms (all electrons):
               1          2          3          4          5          6
     1  C    4.044886   0.000000   0.000000   0.000000   0.000000   0.000000
     2  C    0.000000   4.115699   0.000000   0.000000   0.000000   0.000000
     3  C    0.000000   0.000000   4.124114   0.000000   0.000000   0.000000
     4  C    0.000000   0.000000   0.000000   4.068104   0.000000   0.000000
     5  H    0.000000   0.000000   0.000000   0.000000   0.961237   0.000000
     6  H    0.000000   0.000000   0.000000   0.000000   0.000000   0.924963
     7  H    0.000000   0.000000   0.000000   0.000000   0.000000   0.000000
     8  H    0.000000   0.000000   0.000000   0.000000   0.000000   0.000000
     9  S    0.000000   0.000000   0.000000   0.000000   0.000000   0.000000
               7          8          9
     1  C    0.000000   0.000000   0.000000
     2  C    0.000000   0.000000   0.000000
     3  C    0.000000   0.000000   0.000000
     4  C    0.000000   0.000000   0.000000
     5  H    0.000000   0.000000   0.000000
     6  H    0.000000   0.000000   0.000000
     7  H    0.941644   0.000000   0.000000
     8  H    0.000000   0.939552   0.000000
     9  S    0.000000   0.000000   5.879800
 Mulliken charges:
               1
     1  C   -0.044886
     2  C   -0.115699
     3  C   -0.124114
     4  C   -0.068104
     5  H    0.038763
     6  H    0.075037
     7  H    0.058356
     8  H    0.060448
     9  S    0.120200
 Sum of Mulliken charges =   0.00000
 Mulliken charges with hydrogens summed into heavy atoms:
               1
     1  C    0.015562
     2  C   -0.057343
     3  C   -0.049078
     4  C   -0.029341
     9  S    0.120200
 Charge=              0.0000 electrons
 Dipole moment (field-independent basis, Debye):
    X=              1.0233    Y=              0.1286    Z=              0.0777  Tot=              1.0343
 N-N= 9.281777133353D+01 E-N=-1.547343407966D+02  KE=-1.358305142331D+01
 Leave Link  601 at Wed Mar 23 16:43:22 2016, MaxMem=    33554432 cpu:         0.0
 (Enter /opt/g09/g09/l701.exe)
 Compute integral first derivatives.
 ... and contract with generalized density number  0.
 Leave Link  701 at Wed Mar 23 16:43:22 2016, MaxMem=    33554432 cpu:         0.0
 (Enter /opt/g09/g09/l702.exe)
 L702 exits ... SP integral derivatives will be done elsewhere.
 Leave Link  702 at Wed Mar 23 16:43:22 2016, MaxMem=    33554432 cpu:         0.0
 (Enter /opt/g09/g09/l703.exe)
 Compute integral first derivatives, UseDBF=F ICtDFT=           0.
 Integral derivatives from FoFJK, PRISM(SPDF).
 Calling FoFJK, ICntrl=      2127 FMM=F ISym2X=0 I1Cent= 0 IOpClX= 0 NMat=1 NMatS=1 NMatT=0.
 FoFJK:  IHMeth= 8 ICntrl=    2127 DoSepK=F KAlg= 0 I1Cent=   0 FoldK=F
 IRaf=         0 NMat=   1 IRICut=       1 DoRegI=T DoRafI=F ISym2E= 0.
 FoFCou: FMM=F IPFlag=           0 FMFlag=      100000 FMFlg1=         800
         NFxFlg=           0 DoJE=F BraDBF=F KetDBF=F FulRan=T
         wScrn=  0.000000 ICntrl=    2127 IOpCl=  0 I1Cent=           0 NGrid=           0
         NMat0=    1 NMatS0=      1 NMatT0=    0 NMatD0=    1 NMtDS0=    0 NMtDT0=    0
 Symmetry not used in FoFCou.
 Leave Link  703 at Wed Mar 23 16:43:22 2016, MaxMem=    33554432 cpu:         0.0
 (Enter /opt/g09/g09/l716.exe)
 Dipole        = 4.02598740D-01 5.05847104D-02 3.05838657D-02
 ***** Axes restored to original set *****
 -------------------------------------------------------------------
 Center     Atomic                   Forces (Hartrees/Bohr)
 Number     Number              X              Y              Z
 -------------------------------------------------------------------
      1        6          -0.124763191    0.046059735   -0.003306603
      2        6           0.061557869   -0.002452904    0.002016379
      3        6           0.009668188    0.015338227    0.005236248
      4        6           0.045090542    0.041677298   -0.008014030
      5        1          -0.025772510   -0.024527062    0.010384402
      6        1           0.004140301   -0.034118366   -0.011279960
      7        1          -0.013705514    0.008775159   -0.005691205
      8        1           0.054446154   -0.037700250    0.000975262
      9       16          -0.010661840   -0.013051838    0.009679507
 -------------------------------------------------------------------
 Cartesian Forces:  Max     0.124763191 RMS     0.035188354
 Leave Link  716 at Wed Mar 23 16:43:22 2016, MaxMem=    33554432 cpu:         0.0
 (Enter /opt/g09/g09/l103.exe)

 GradGradGradGradGradGradGradGradGradGradGradGradGradGradGradGradGradGrad
 Berny optimization.
 FormGI is forming the generalized inverse of G from B-inverse, IUseBI=4.
 Internal  Forces:  Max     0.065974752 RMS     0.017529591
 Search for a local minimum.
 Step number   1 out of a maximum of   48
 All quantities printed in internal units (Hartrees-Bohrs-Radians)
 RMS Force = .17530D-01 SwitMx=.10000D-02 MixMth= 1
 Mixed Optimization -- RFO/linear search
 Second derivative matrix not updated -- first step.
 ITU=  0
     Eigenvalues ---    0.01201   0.01369   0.01743   0.01917   0.01983
     Eigenvalues ---    0.02196   0.15932   0.15962   0.15979   0.15987
     Eigenvalues ---    0.21942   0.22608   0.26234   0.27872   0.29932
     Eigenvalues ---    0.32065   0.36617   0.38240   0.41895   0.49196
     Eigenvalues ---    0.50608
 RFO step:  Lambda=-3.38036594D-02 EMin= 1.20098703D-02
 Linear search not attempted -- first point.
 Iteration  1 RMS(Cart)=  0.05488599 RMS(Int)=  0.00261116
 Iteration  2 RMS(Cart)=  0.00266022 RMS(Int)=  0.00093077
 Iteration  3 RMS(Cart)=  0.00000228 RMS(Int)=  0.00093076
 Iteration  4 RMS(Cart)=  0.00000000 RMS(Int)=  0.00093076
 ITry= 1 IFail=0 DXMaxC= 1.86D-01 DCOld= 1.00D+10 DXMaxT= 3.00D-01 DXLimC= 3.00D+00 Rises=F
 Variable       Old X    -DE/DX   Delta X   Delta X   Delta X     New X
                                 (Linear)    (Quad)   (Total)
    R1        2.66792  -0.04437   0.00000  -0.09748  -0.09719   2.57074
    R2        2.72497  -0.00490   0.00000  -0.01319  -0.01263   2.71234
    R3        1.87385   0.06597   0.00000   0.12548   0.12548   1.99934
    R4        2.03127  -0.00693   0.00000  -0.01732  -0.01732   2.01396
    R5        3.39006  -0.00882   0.00000  -0.03062  -0.03097   3.35909
    R6        2.57289  -0.01158   0.00000  -0.01916  -0.01902   2.55387
    R7        2.10725  -0.03558   0.00000  -0.10038  -0.10038   2.00687
    R8        3.35094   0.00934   0.00000   0.03430   0.03386   3.38479
    R9        2.14799  -0.03607   0.00000  -0.10829  -0.10829   2.03971
    A1        1.86544   0.02332   0.00000   0.08478   0.08444   1.94988
    A2        2.25250  -0.01519   0.00000  -0.06027  -0.06022   2.19228
    A3        2.16354  -0.00802   0.00000  -0.02335  -0.02326   2.14028
    A4        2.07871   0.01553   0.00000   0.08262   0.08312   2.16183
    A5        1.97891  -0.00039   0.00000  -0.00730  -0.00851   1.97039
    A6        2.22474  -0.01519   0.00000  -0.07627  -0.07574   2.14899
    A7        2.23385  -0.00055   0.00000  -0.00478  -0.00438   2.22947
    A8        1.89787   0.00721   0.00000   0.03999   0.03853   1.93640
    A9        2.15018  -0.00671   0.00000  -0.03667  -0.03605   2.11413
   A10        2.08968  -0.02169   0.00000  -0.08240  -0.08286   2.00682
   A11        2.12915   0.00516   0.00000   0.01196   0.01222   2.14137
   A12        2.06132   0.01654   0.00000   0.07109   0.07132   2.13264
   A13        1.57938  -0.00758   0.00000  -0.01615  -0.01931   1.56007
    D1       -3.02322  -0.00075   0.00000  -0.03523  -0.03530  -3.05852
    D2        0.07794  -0.00242   0.00000  -0.06038  -0.06045   0.01749
    D3        0.18004  -0.00280   0.00000  -0.05643  -0.05611   0.12394
    D4       -3.00198  -0.00447   0.00000  -0.08158  -0.08126  -3.08324
    D5        0.03679  -0.00129   0.00000  -0.01966  -0.01939   0.01740
    D6       -3.01944  -0.00226   0.00000  -0.03208  -0.03240  -3.05184
    D7        3.12065   0.00023   0.00000  -0.00174  -0.00111   3.11954
    D8        0.06442  -0.00074   0.00000  -0.01416  -0.01411   0.05030
    D9       -0.12883   0.00496   0.00000   0.09661   0.09431  -0.03452
   D10        2.96825   0.00403   0.00000   0.07357   0.07379   3.04204
   D11        2.95630   0.00330   0.00000   0.05728   0.05602   3.01232
   D12       -0.26736   0.00377   0.00000   0.06671   0.06613  -0.20123
   D13       -0.13163   0.00464   0.00000   0.08878   0.08838  -0.04326
   D14        2.92789   0.00511   0.00000   0.09821   0.09849   3.02638
   D15        0.13965  -0.00409   0.00000  -0.09404  -0.09625   0.04339
   D16       -2.95141  -0.00303   0.00000  -0.06540  -0.06734  -3.01875
         Item               Value     Threshold  Converged?
 Maximum Force            0.065975     0.000450     NO 
 RMS     Force            0.017530     0.000300     NO 
 Maximum Displacement     0.185974     0.001800     NO 
 RMS     Displacement     0.055293     0.001200     NO 
 Predicted change in Energy=-1.959493D-02
 Lowest energy point so far.  Saving SCF results.
 GradGradGradGradGradGradGradGradGradGradGradGradGradGradGradGradGradGrad

 Leave Link  103 at Wed Mar 23 16:43:22 2016, MaxMem=    33554432 cpu:         0.0
 (Enter /opt/g09/g09/l202.exe)
                          Input orientation:                          
 ---------------------------------------------------------------------
 Center     Atomic      Atomic             Coordinates (Angstroms)
 Number     Number       Type             X           Y           Z
 ---------------------------------------------------------------------
      1          6           0        0.885959   -0.719059    0.008759
      2          6           0       -0.377247   -1.223965    0.008614
      3          6           0       -0.341165    1.285472    0.040673
      4          6           0        0.884285    0.716238    0.014942
      5          1           0        1.788202    1.300625   -0.065417
      6          1           0       -0.577727    2.314127    0.157863
      7          1           0       -0.601252   -2.263590    0.077925
      8          1           0        1.776902   -1.288330   -0.030267
      9         16           0       -1.627117    0.039788   -0.012571
 ---------------------------------------------------------------------
                    Distance matrix (angstroms):
                    1          2          3          4          5
     1  C    0.000000
     2  C    1.360375   0.000000
     3  C    2.350531   2.509901   0.000000
     4  C    1.435311   2.314280   1.351450   0.000000
     5  H    2.213293   3.326891   2.132062   1.079366   0.000000
     6  H    3.371176   3.546908   1.061991   2.170520   2.583536
     7  H    2.145264   1.065741   3.558774   3.330189   4.293444
     8  H    1.058003   2.155462   3.334021   2.194789   2.589218
     9  S    2.625235   1.777553   1.791155   2.601054   3.641004
                    6          7          8          9
     6  H    0.000000
     7  H    4.578475   0.000000
     8  H    4.307826   2.572635   0.000000
     9  S    2.510554   2.523121   3.653978   0.000000
 Stoichiometry    C4H4S
 Framework group  C1[X(C4H4S)]
 Deg. of freedom    21
 Full point group                 C1      NOp   1
 RotChk:  IX=0 Diff= 1.44D-01
 Largest Abelian subgroup         C1      NOp   1
 Largest concise Abelian subgroup C1      NOp   1
                         Standard orientation:                         
 ---------------------------------------------------------------------
 Center     Atomic      Atomic             Coordinates (Angstroms)
 Number     Number       Type             X           Y           Z
 ---------------------------------------------------------------------
      1          6           0        1.301850   -0.703919    0.003263
      2          6           0        0.054495   -1.246718    0.012966
      3          6           0        0.014787    1.262861    0.018792
      4          6           0        1.256797    0.730659   -0.005477
      5          1           0        2.142358    1.341203   -0.095198
      6          1           0       -0.252381    2.285077    0.126137
      7          1           0       -0.137739   -2.291849    0.093900
      8          1           0        2.209465   -1.246400   -0.033082
      9         16           0       -1.233080   -0.021583   -0.016814
 ---------------------------------------------------------------------
 Rotational constants (GHZ):      7.8792345      5.1863996      3.1295898
 Leave Link  202 at Wed Mar 23 16:43:22 2016, MaxMem=    33554432 cpu:         0.0
 (Enter /opt/g09/g09/l301.exe)

 Semi-emprical parameters in input format:
 Method=8 CoreType=1 PeptideFC=0.0107799116 RIJScale=0.5291772086
 ****
 H       
 PQN=1 NValence=1 F0ss=0.4721553327 ZetaOverlap=1.2834277808 U=-0.4188110042
 Beta=-0.2268825074 CoreKO=1.0589197790 KON=0,0,0,1.0589197790 KON=1,0,1,1.0678914578
 KON=0,1,1,0.9991877409 KON=2,1,1,1.0482727950 EISol=-0.4188110042 EHeat=0.0830298228
 Alpha=1.5697008096
 GCore=0.0085277107,1.5022803151,2.2676713595
 GCore=0.0003481659,1.4001425905,3.4015070392
 GCore=-0.0012733648,0.5382405043,3.7912913148
 ****
 C       
 PQN=2,2 NValence=4 F0ss=0.4581203714 F0sp=0.4551311508 F0pp=0.3768030831 F2pp=0.1898715146
 G1sp=0.2577005483
 ZetaOverlap=1.7959818712,1.6022741171
 U=-1.9622063813,-1.4557965594
 Beta=-0.5913802681,-0.2836784428 DDN=0,1,0.8556599190 DDN=1,1,0.7190140577
 CoreKO=1.0843477999 KON=0,0,0,1.1742403799 KON=1,0,1,0.8219701441 KON=0,1,1,1.0386578133
 KON=2,1,1,0.7783928119 EISol=-4.4398989268 EHeat=0.2723305520 Alpha=1.4014062429
 DipHyp=1.7112213843
 GCore=0.0007885612,1.4001425905,3.0235618126
 GCore=0.0027097888,1.5281570636,3.4959933458
 GCore=-0.0014774999,1.3110293289,3.8274143832
 GCore=-0.0000873394,1.4001425905,5.0077742521
 ****
 S       
 PQN=3,3 NValence=6 F0ss=0.4364624013 F0sp=0.3183640731 F0pp=0.3136271218 F2pp=0.3456917167
 G1sp=0.2964482287
 ZetaOverlap=2.3061447044,1.6672630000,1.0255342438
 U=-2.0270271906,-1.7796976476
 Beta=-0.1387870751,-0.2905136336 DDN=0,1,0.8912644417 DDN=1,1,0.9573921396
 CoreKO=1.1543033468 KON=0,0,0,1.1590494055 KON=1,0,1,0.8464368816 KON=0,1,1,1.1643486136
 KON=2,1,1,0.7746001785 EISol=-7.0460287497 EHeat=0.1058151363 Alpha=1.2167665550
 DipHyp=1.7824263330
 GCore=-0.0301103914,1.2863644833,1.4919778348
 GCore=-0.0008024464,1.4979177626,2.8887298674
 GCore=0.0007987635,3.9199477853,3.7967867236
 ****
 
 Standard basis: VSTO-6G (5D, 7F)
 Ernie: Thresh=  0.10000D-02 Tol=  0.10000D-05 Strict=F.
  NNHCO=     0 NNPyr=     0 NCTC=     0               EPep=         0.000000000
    EC=        63.458914585  ECS=         1.686644327   EG=         0.117479832
   EHC=         0.000000000  EAt=       -26.480868474  AtH=         1.527256636
 EPDDG=         0.000000000  ECC=        65.263038744 EAtT=        28.008125109
 There are    24 symmetry adapted cartesian basis functions of A   symmetry.
 There are    24 symmetry adapted basis functions of A   symmetry.
    24 basis functions,   144 primitive gaussians,    24 cartesian basis functions
    13 alpha electrons       13 beta electrons
       nuclear repulsion energy        93.2711638529 Hartrees.
 IExCor=    0 DFT=F Ex=HF Corr=None ExCW=0 ScaHFX=  1.000000
 ScaDFX=  1.000000  1.000000  1.000000  1.000000 ScalE2=  1.000000  1.000000
 IRadAn=      0 IRanWt=     -1 IRanGd=            0 ICorTp=0 IEmpDi=  4
 Integral buffers will be    131072 words long.
 Regular integral format.
 Two-electron integral symmetry is turned off.
 Leave Link  301 at Wed Mar 23 16:43:22 2016, MaxMem=    33554432 cpu:         0.0
 (Enter /opt/g09/g09/l302.exe)
 Do NDO integrals.
 NPDir=0 NMtPBC=     1 NCelOv=     1 NCel=       1 NClECP=     1 NCelD=      1
         NCelK=      1 NCelE2=     1 NClLst=     1 CellRange=     0.0.
 One-electron integrals computed using PRISM.
 NBasis=    24 RedAO= F EigKep=  0.00D+00  NBF=    24
 NBsUse=    24 1.00D-04 EigRej=  0.00D+00 NBFU=    24
 Leave Link  302 at Wed Mar 23 16:43:22 2016, MaxMem=    33554432 cpu:         0.0
 (Enter /opt/g09/g09/l303.exe)
 DipDrv:  MaxL=1.
 Leave Link  303 at Wed Mar 23 16:43:22 2016, MaxMem=    33554432 cpu:         0.0
 (Enter /opt/g09/g09/l401.exe)
 Initial guess from the checkpoint file:  "/opt/g09/scratch/Gau-7735.chk"
 B after Tr=     0.000000    0.000000    0.000000
         Rot=    0.999052    0.000164    0.000060    0.043534 Ang=   4.99 deg.
 Guess basis will be translated and rotated to current coordinates.
 JPrj=0 DoOrth=T DoCkMO=T.
 Leave Link  401 at Wed Mar 23 16:43:22 2016, MaxMem=    33554432 cpu:         0.0
 (Enter /opt/g09/g09/l502.exe)
 Closed shell SCF:
 Using DIIS extrapolation, IDIIS=  1040.
 Overlap will be assumed to be unity.
 Two-electron integral symmetry not used.
 Keep J ints in memory in canonical form, NReq=888082.
 IVT=       79475 IEndB=       79475 NGot=    33554432 MDV=    33473473
 LenX=    33473473 LenY=    33472456
 Requested convergence on RMS density matrix=1.00D-08 within 128 cycles.
 Requested convergence on MAX density matrix=1.00D-06.
 Requested convergence on             energy=1.00D-06.
 No special actions if energy rises.
 FoFCou: FMM=F IPFlag=           0 FMFlag=           0 FMFlg1=           0
         NFxFlg=           0 DoJE=F BraDBF=F KetDBF=F FulRan=T
         wScrn=  0.000000 ICntrl=     600 IOpCl=  2 I1Cent=           0 NGrid=           0
         NMat0=    1 NMatS0=     54 NMatT0=    0 NMatD0=    1 NMtDS0=    0 NMtDT0=    0
 Symmetry not used in FoFCou.

 Cycle   1  Pass 1  IDiag  1:
 E= 0.290185757366714    
 DIIS: error= 7.36D-03 at cycle   1 NSaved=   1.
 NSaved= 1 IEnMin= 1 EnMin= 0.290185757366714     IErMin= 1 ErrMin= 7.36D-03
 ErrMax= 7.36D-03  0.00D+00 EMaxC= 1.00D-01 BMatC= 2.17D-03 BMatP= 2.17D-03
 IDIUse=3 WtCom= 9.26D-01 WtEn= 7.36D-02
 Coeff-Com:  0.100D+01
 Coeff-En:   0.100D+01
 Coeff:      0.100D+01
 GapD=    2.000 DampG=2.000 DampE=1.000 DampFc=2.0000 IDamp=-1.
 RMSDP=3.40D-03 MaxDP=1.63D-02              OVMax= 0.00D+00

 Cycle   2  Pass 1  IDiag  3:
 E= 0.283307840783351     Delta-E=       -0.006877916583 Rises=F Damp=F
 DIIS: error= 2.64D-03 at cycle   2 NSaved=   2.
 NSaved= 2 IEnMin= 2 EnMin= 0.283307840783351     IErMin= 2 ErrMin= 2.64D-03
 ErrMax= 2.64D-03  0.00D+00 EMaxC= 1.00D-01 BMatC= 2.73D-04 BMatP= 2.17D-03
 IDIUse=3 WtCom= 9.74D-01 WtEn= 2.64D-02
 Coeff-Com: -0.444D+00 0.144D+01
 Coeff-En:   0.000D+00 0.100D+01
 Coeff:     -0.432D+00 0.143D+01
 Gap=     0.372 Goal=   None    Shift=    0.000
 RMSDP=2.15D-03 MaxDP=1.14D-02 DE=-6.88D-03 OVMax= 1.10D-02

 Cycle   3  Pass 1  IDiag  3:
 E= 0.281909218136363     Delta-E=       -0.001398622647 Rises=F Damp=F
 DIIS: error= 6.85D-04 at cycle   3 NSaved=   3.
 NSaved= 3 IEnMin= 3 EnMin= 0.281909218136363     IErMin= 3 ErrMin= 6.85D-04
 ErrMax= 6.85D-04  0.00D+00 EMaxC= 1.00D-01 BMatC= 1.64D-05 BMatP= 2.73D-04
 IDIUse=3 WtCom= 9.93D-01 WtEn= 6.85D-03
 Coeff-Com:  0.253D+00-0.957D+00 0.170D+01
 Coeff-En:   0.000D+00 0.000D+00 0.100D+01
 Coeff:      0.251D+00-0.950D+00 0.170D+01
 Gap=     0.372 Goal=   None    Shift=    0.000
 RMSDP=8.46D-04 MaxDP=4.20D-03 DE=-1.40D-03 OVMax= 4.69D-03

 Cycle   4  Pass 1  IDiag  3:
 E= 0.281780454671861     Delta-E=       -0.000128763465 Rises=F Damp=F
 DIIS: error= 8.41D-05 at cycle   4 NSaved=   4.
 NSaved= 4 IEnMin= 4 EnMin= 0.281780454671861     IErMin= 4 ErrMin= 8.41D-05
 ErrMax= 8.41D-05  0.00D+00 EMaxC= 1.00D-01 BMatC= 5.91D-07 BMatP= 1.64D-05
 IDIUse=1 WtCom= 1.00D+00 WtEn= 0.00D+00
 Coeff-Com: -0.110D+00 0.426D+00-0.865D+00 0.155D+01
 Coeff:     -0.110D+00 0.426D+00-0.865D+00 0.155D+01
 Gap=     0.372 Goal=   None    Shift=    0.000
 RMSDP=1.77D-04 MaxDP=8.70D-04 DE=-1.29D-04 OVMax= 1.45D-03

 Cycle   5  Pass 1  IDiag  3:
 E= 0.281775147120229     Delta-E=       -0.000005307552 Rises=F Damp=F
 DIIS: error= 2.52D-05 at cycle   5 NSaved=   5.
 NSaved= 5 IEnMin= 5 EnMin= 0.281775147120229     IErMin= 5 ErrMin= 2.52D-05
 ErrMax= 2.52D-05  0.00D+00 EMaxC= 1.00D-01 BMatC= 4.01D-08 BMatP= 5.91D-07
 IDIUse=1 WtCom= 1.00D+00 WtEn= 0.00D+00
 Coeff-Com:  0.288D-01-0.113D+00 0.245D+00-0.626D+00 0.147D+01
 Coeff:      0.288D-01-0.113D+00 0.245D+00-0.626D+00 0.147D+01
 Gap=     0.372 Goal=   None    Shift=    0.000
 RMSDP=4.80D-05 MaxDP=2.55D-04 DE=-5.31D-06 OVMax= 4.71D-04

 Cycle   6  Pass 1  IDiag  3:
 E= 0.281774761562375     Delta-E=       -0.000000385558 Rises=F Damp=F
 DIIS: error= 7.58D-06 at cycle   6 NSaved=   6.
 NSaved= 6 IEnMin= 6 EnMin= 0.281774761562375     IErMin= 6 ErrMin= 7.58D-06
 ErrMax= 7.58D-06  0.00D+00 EMaxC= 1.00D-01 BMatC= 3.32D-09 BMatP= 4.01D-08
 IDIUse=1 WtCom= 1.00D+00 WtEn= 0.00D+00
 Coeff-Com:  0.148D-02-0.547D-02 0.732D-02 0.429D-01-0.464D+00 0.142D+01
 Coeff:      0.148D-02-0.547D-02 0.732D-02 0.429D-01-0.464D+00 0.142D+01
 Gap=     0.372 Goal=   None    Shift=    0.000
 RMSDP=1.48D-05 MaxDP=8.30D-05 DE=-3.86D-07 OVMax= 1.51D-04

 Cycle   7  Pass 1  IDiag  3:
 E= 0.281774730796826     Delta-E=       -0.000000030766 Rises=F Damp=F
 DIIS: error= 2.24D-06 at cycle   7 NSaved=   7.
 NSaved= 7 IEnMin= 7 EnMin= 0.281774730796826     IErMin= 7 ErrMin= 2.24D-06
 ErrMax= 2.24D-06  0.00D+00 EMaxC= 1.00D-01 BMatC= 1.86D-10 BMatP= 3.32D-09
 IDIUse=1 WtCom= 1.00D+00 WtEn= 0.00D+00
 Coeff-Com: -0.222D-02 0.850D-02-0.157D-01 0.465D-02 0.199D+00-0.815D+00
 Coeff-Com:  0.162D+01
 Coeff:     -0.222D-02 0.850D-02-0.157D-01 0.465D-02 0.199D+00-0.815D+00
 Coeff:      0.162D+01
 Gap=     0.372 Goal=   None    Shift=    0.000
 RMSDP=2.94D-06 MaxDP=1.49D-05 DE=-3.08D-08 OVMax= 2.48D-05

 Cycle   8  Pass 1  IDiag  3:
 E= 0.281774729377105     Delta-E=       -0.000000001420 Rises=F Damp=F
 DIIS: error= 3.85D-07 at cycle   8 NSaved=   8.
 NSaved= 8 IEnMin= 8 EnMin= 0.281774729377105     IErMin= 8 ErrMin= 3.85D-07
 ErrMax= 3.85D-07  0.00D+00 EMaxC= 1.00D-01 BMatC= 7.61D-12 BMatP= 1.86D-10
 IDIUse=1 WtCom= 1.00D+00 WtEn= 0.00D+00
 Coeff-Com:  0.116D-02-0.447D-02 0.838D-02-0.366D-02-0.983D-01 0.417D+00
 Coeff-Com: -0.934D+00 0.161D+01
 Coeff:      0.116D-02-0.447D-02 0.838D-02-0.366D-02-0.983D-01 0.417D+00
 Coeff:     -0.934D+00 0.161D+01
 Gap=     0.372 Goal=   None    Shift=    0.000
 RMSDP=5.96D-07 MaxDP=3.47D-06 DE=-1.42D-09 OVMax= 4.73D-06

 Cycle   9  Pass 1  IDiag  3:
 E= 0.281774729314861     Delta-E=       -0.000000000062 Rises=F Damp=F
 DIIS: error= 1.10D-07 at cycle   9 NSaved=   9.
 NSaved= 9 IEnMin= 9 EnMin= 0.281774729314861     IErMin= 9 ErrMin= 1.10D-07
 ErrMax= 1.10D-07  0.00D+00 EMaxC= 1.00D-01 BMatC= 4.90D-13 BMatP= 7.61D-12
 IDIUse=1 WtCom= 1.00D+00 WtEn= 0.00D+00
 Coeff-Com: -0.478D-03 0.183D-02-0.341D-02 0.113D-02 0.431D-01-0.180D+00
 Coeff-Com:  0.409D+00-0.862D+00 0.159D+01
 Coeff:     -0.478D-03 0.183D-02-0.341D-02 0.113D-02 0.431D-01-0.180D+00
 Coeff:      0.409D+00-0.862D+00 0.159D+01
 Gap=     0.372 Goal=   None    Shift=    0.000
 RMSDP=1.62D-07 MaxDP=1.07D-06 DE=-6.22D-11 OVMax= 1.51D-06

 Cycle  10  Pass 1  IDiag  3:
 E= 0.281774729310428     Delta-E=       -0.000000000004 Rises=F Damp=F
 DIIS: error= 3.52D-08 at cycle  10 NSaved=  10.
 NSaved=10 IEnMin=10 EnMin= 0.281774729310428     IErMin=10 ErrMin= 3.52D-08
 ErrMax= 3.52D-08  0.00D+00 EMaxC= 1.00D-01 BMatC= 3.49D-14 BMatP= 4.90D-13
 IDIUse=1 WtCom= 1.00D+00 WtEn= 0.00D+00
 Coeff-Com:  0.983D-04-0.378D-03 0.696D-03 0.355D-05-0.111D-01 0.451D-01
 Coeff-Com: -0.103D+00 0.244D+00-0.671D+00 0.150D+01
 Coeff:      0.983D-04-0.378D-03 0.696D-03 0.355D-05-0.111D-01 0.451D-01
 Coeff:     -0.103D+00 0.244D+00-0.671D+00 0.150D+01
 Gap=     0.372 Goal=   None    Shift=    0.000
 RMSDP=4.45D-08 MaxDP=3.66D-07 DE=-4.43D-12 OVMax= 3.76D-07

 Cycle  11  Pass 1  IDiag  3:
 E= 0.281774729310229     Delta-E=        0.000000000000 Rises=F Damp=F
 DIIS: error= 7.42D-09 at cycle  11 NSaved=  11.
 NSaved=11 IEnMin=11 EnMin= 0.281774729310229     IErMin=11 ErrMin= 7.42D-09
 ErrMax= 7.42D-09  0.00D+00 EMaxC= 1.00D-01 BMatC= 2.49D-15 BMatP= 3.49D-14
 IDIUse=1 WtCom= 1.00D+00 WtEn= 0.00D+00
 Coeff-Com: -0.146D-04 0.561D-04-0.964D-04-0.140D-03 0.285D-02-0.108D-01
 Coeff-Com:  0.243D-01-0.626D-01 0.220D+00-0.741D+00 0.157D+01
 Coeff:     -0.146D-04 0.561D-04-0.964D-04-0.140D-03 0.285D-02-0.108D-01
 Coeff:      0.243D-01-0.626D-01 0.220D+00-0.741D+00 0.157D+01
 Gap=     0.372 Goal=   None    Shift=    0.000
 RMSDP=1.24D-08 MaxDP=9.75D-08 DE=-1.99D-13 OVMax= 1.04D-07

 Cycle  12  Pass 1  IDiag  3:
 E= 0.281774729310229     Delta-E=        0.000000000000 Rises=F Damp=F
 DIIS: error= 1.89D-09 at cycle  12 NSaved=  12.
 NSaved=12 IEnMin=11 EnMin= 0.281774729310229     IErMin=12 ErrMin= 1.89D-09
 ErrMax= 1.89D-09  0.00D+00 EMaxC= 1.00D-01 BMatC= 1.71D-16 BMatP= 2.49D-15
 IDIUse=1 WtCom= 1.00D+00 WtEn= 0.00D+00
 Coeff-Com:  0.215D-05-0.839D-05 0.111D-04 0.956D-04-0.108D-02 0.387D-02
 Coeff-Com: -0.875D-02 0.248D-01-0.102D+00 0.397D+00-0.103D+01 0.172D+01
 Coeff:      0.215D-05-0.839D-05 0.111D-04 0.956D-04-0.108D-02 0.387D-02
 Coeff:     -0.875D-02 0.248D-01-0.102D+00 0.397D+00-0.103D+01 0.172D+01
 Gap=     0.372 Goal=   None    Shift=    0.000
 RMSDP=3.36D-09 MaxDP=2.01D-08 DE= 0.00D+00 OVMax= 3.34D-08

 Cycle  13  Pass 2  IDiag  1:
 SCF Done:  E(RAM1) =  0.281774729310     A.U. after   13 cycles
            NFock= 12  Conv=0.34D-08     -V/T= 1.0206
 KE=-1.365496913640D+01 PE=-1.554530083580D+02 EE= 7.611858837075D+01
 Leave Link  502 at Wed Mar 23 16:43:22 2016, MaxMem=    33554432 cpu:         0.0
 (Enter /opt/g09/g09/l701.exe)
 Compute integral first derivatives.
 ... and contract with generalized density number  0.
 Leave Link  701 at Wed Mar 23 16:43:22 2016, MaxMem=    33554432 cpu:         0.0
 (Enter /opt/g09/g09/l702.exe)
 L702 exits ... SP integral derivatives will be done elsewhere.
 Leave Link  702 at Wed Mar 23 16:43:22 2016, MaxMem=    33554432 cpu:         0.0
 (Enter /opt/g09/g09/l703.exe)
 Compute integral first derivatives, UseDBF=F ICtDFT=           0.
 Integral derivatives from FoFJK, PRISM(SPDF).
 Calling FoFJK, ICntrl=      2127 FMM=F ISym2X=0 I1Cent= 0 IOpClX= 0 NMat=1 NMatS=1 NMatT=0.
 FoFJK:  IHMeth= 8 ICntrl=    2127 DoSepK=F KAlg= 0 I1Cent=   0 FoldK=F
 IRaf=         0 NMat=   1 IRICut=       1 DoRegI=T DoRafI=F ISym2E= 0.
 FoFCou: FMM=F IPFlag=           0 FMFlag=      100000 FMFlg1=         800
         NFxFlg=           0 DoJE=F BraDBF=F KetDBF=F FulRan=T
         wScrn=  0.000000 ICntrl=    2127 IOpCl=  0 I1Cent=           0 NGrid=           0
         NMat0=    1 NMatS0=      1 NMatT0=    0 NMatD0=    1 NMtDS0=    0 NMtDT0=    0
 Symmetry not used in FoFCou.
 Leave Link  703 at Wed Mar 23 16:43:22 2016, MaxMem=    33554432 cpu:         0.0
 (Enter /opt/g09/g09/l716.exe)
 Dipole        = 4.54812739D-01 2.03928909D-02 2.18525152D-02
 ***** Axes restored to original set *****
 -------------------------------------------------------------------
 Center     Atomic                   Forces (Hartrees/Bohr)
 Number     Number              X              Y              Z
 -------------------------------------------------------------------
      1        6          -0.012585816    0.005628596   -0.004528364
      2        6           0.011576673   -0.013246845    0.004405998
      3        6          -0.002304381    0.001564053    0.005076592
      4        6           0.016890032    0.013065475   -0.006240419
      5        1          -0.000332084   -0.003515767    0.004698603
      6        1          -0.003937329    0.001893082   -0.004729151
      7        1          -0.008190785    0.000492270   -0.003605713
      8        1           0.008789840   -0.006346013    0.001880169
      9       16          -0.009906151    0.000465149    0.003042284
 -------------------------------------------------------------------
 Cartesian Forces:  Max     0.016890032 RMS     0.007335745
 Leave Link  716 at Wed Mar 23 16:43:22 2016, MaxMem=    33554432 cpu:         0.0
 (Enter /opt/g09/g09/l103.exe)

 GradGradGradGradGradGradGradGradGradGradGradGradGradGradGradGradGradGrad
 Berny optimization.
 Using GEDIIS/GDIIS optimizer.
 FormGI is forming the generalized inverse of G from B-inverse, IUseBI=4.
 Internal  Forces:  Max     0.010747100 RMS     0.004509110
 Search for a local minimum.
 Step number   2 out of a maximum of   48
 All quantities printed in internal units (Hartrees-Bohrs-Radians)
 RMS Force = .45091D-02 SwitMx=.10000D-02 MixMth= 1
 Mixed Optimization -- RFO/linear search
 Update second derivatives using D2CorX and points    1    2
 DE= -1.97D-02 DEPred=-1.96D-02 R= 1.01D+00
 TightC=F SS=  1.41D+00  RLast= 3.98D-01 DXNew= 5.0454D-01 1.1949D+00
 Trust test= 1.01D+00 RLast= 3.98D-01 DXMaxT set to 5.05D-01
 ITU=  1  0
 Use linear search instead of GDIIS.
     Eigenvalues ---    0.01243   0.01427   0.01737   0.01941   0.01973
     Eigenvalues ---    0.02194   0.14322   0.15940   0.15973   0.16005
     Eigenvalues ---    0.20844   0.22669   0.26494   0.27548   0.30005
     Eigenvalues ---    0.32940   0.36644   0.38695   0.43834   0.46626
     Eigenvalues ---    0.54715
 RFO step:  Lambda=-4.40155057D-03 EMin= 1.24273346D-02
 Quartic linear search produced a step of  0.18210.
 Iteration  1 RMS(Cart)=  0.04805425 RMS(Int)=  0.00246947
 Iteration  2 RMS(Cart)=  0.00248099 RMS(Int)=  0.00087582
 Iteration  3 RMS(Cart)=  0.00000475 RMS(Int)=  0.00087581
 Iteration  4 RMS(Cart)=  0.00000000 RMS(Int)=  0.00087581
 ITry= 1 IFail=0 DXMaxC= 1.62D-01 DCOld= 1.00D+10 DXMaxT= 5.05D-01 DXLimC= 3.00D+00 Rises=F
 Variable       Old X    -DE/DX   Delta X   Delta X   Delta X     New X
                                 (Linear)    (Quad)   (Total)
    R1        2.57074   0.00461  -0.01770   0.02350   0.00597   2.57670
    R2        2.71234   0.00977  -0.00230   0.03145   0.02935   2.74169
    R3        1.99934   0.01075   0.02285   0.01055   0.03340   2.03273
    R4        2.01396   0.00101  -0.00315   0.00531   0.00215   2.01611
    R5        3.35909   0.00594  -0.00564   0.02773   0.02202   3.38111
    R6        2.55387   0.01048  -0.00346   0.02632   0.02285   2.57672
    R7        2.00687   0.00219  -0.01828   0.02045   0.00217   2.00904
    R8        3.38479   0.00592   0.00617   0.01962   0.02558   3.41037
    R9        2.03971  -0.00253  -0.01972   0.00394  -0.01578   2.02392
    A1        1.94988   0.00519   0.01538   0.01741   0.03280   1.98267
    A2        2.19228  -0.00312  -0.01097  -0.00946  -0.02063   2.17165
    A3        2.14028  -0.00203  -0.00424  -0.00705  -0.01150   2.12878
    A4        2.16183   0.00953   0.01514   0.05664   0.07098   2.23282
    A5        1.97039  -0.00254  -0.00155  -0.01373  -0.01619   1.95420
    A6        2.14899  -0.00692  -0.01379  -0.03830  -0.05285   2.09614
    A7        2.22947   0.00274  -0.00080   0.02216   0.02106   2.25053
    A8        1.93640   0.00182   0.00702   0.00794   0.01405   1.95044
    A9        2.11413  -0.00446  -0.00657  -0.02543  -0.03231   2.08182
   A10        2.00682  -0.00642  -0.01509  -0.01747  -0.03275   1.97407
   A11        2.14137   0.00041   0.00223  -0.00642  -0.00437   2.13700
   A12        2.13264   0.00607   0.01299   0.02595   0.03880   2.17144
   A13        1.56007   0.00201  -0.00352   0.00763   0.00328   1.56335
    D1       -3.05852  -0.00126  -0.00643  -0.08731  -0.09591   3.12875
    D2        0.01749  -0.00047  -0.01101  -0.01236  -0.02342  -0.00593
    D3        0.12394  -0.00236  -0.01022  -0.11194  -0.12339   0.00055
    D4       -3.08324  -0.00157  -0.01480  -0.03699  -0.05090  -3.13414
    D5        0.01740  -0.00050  -0.00353  -0.01340  -0.01685   0.00054
    D6       -3.05184  -0.00167  -0.00590  -0.04620  -0.05138  -3.10322
    D7        3.11954   0.00052  -0.00020   0.01028   0.00958   3.12912
    D8        0.05030  -0.00065  -0.00257  -0.02252  -0.02495   0.02536
    D9       -0.03452   0.00087   0.01717   0.02499   0.04178   0.00725
   D10        3.04204   0.00237   0.01344   0.10340   0.11310  -3.12804
   D11        3.01232   0.00236   0.01020   0.09331   0.10355   3.11587
   D12       -0.20123   0.00327   0.01204   0.12446   0.13680  -0.06443
   D13       -0.04326   0.00115   0.01609   0.03194   0.04831   0.00505
   D14        3.02638   0.00206   0.01793   0.06308   0.08156   3.10794
   D15        0.04339  -0.00098  -0.01753  -0.03120  -0.05034  -0.00695
   D16       -3.01875  -0.00248  -0.01226  -0.09046  -0.10235  -3.12110
         Item               Value     Threshold  Converged?
 Maximum Force            0.010747     0.000450     NO 
 RMS     Force            0.004509     0.000300     NO 
 Maximum Displacement     0.161669     0.001800     NO 
 RMS     Displacement     0.048327     0.001200     NO 
 Predicted change in Energy=-2.967785D-03
 Lowest energy point so far.  Saving SCF results.
 GradGradGradGradGradGradGradGradGradGradGradGradGradGradGradGradGradGrad

 Leave Link  103 at Wed Mar 23 16:43:22 2016, MaxMem=    33554432 cpu:         0.0
 (Enter /opt/g09/g09/l202.exe)
                          Input orientation:                          
 ---------------------------------------------------------------------
 Center     Atomic      Atomic             Coordinates (Angstroms)
 Number     Number       Type             X           Y           Z
 ---------------------------------------------------------------------
      1          6           0        0.888276   -0.711646    0.005156
      2          6           0       -0.368260   -1.240656    0.027218
      3          6           0       -0.338489    1.290903    0.046685
      4          6           0        0.907995    0.739023    0.015865
      5          1           0        1.818016    1.301611   -0.033424
      6          1           0       -0.614336    2.317036    0.081714
      7          1           0       -0.646581   -2.270513    0.014301
      8          1           0        1.792450   -1.293295   -0.029976
      9         16           0       -1.628230    0.028845    0.072981
 ---------------------------------------------------------------------
                    Distance matrix (angstroms):
                    1          2          3          4          5
     1  C    0.000000
     2  C    1.363533   0.000000
     3  C    2.348804   2.531809   0.000000
     4  C    1.450842   2.355438   1.363541   0.000000
     5  H    2.217906   3.353595   2.158019   1.071014   0.000000
     6  H    3.381808   3.566609   1.063141   2.193617   2.638310
     7  H    2.187678   1.066881   3.574864   3.387332   4.340113
     8  H    1.075677   2.162108   3.350352   2.216907   2.595034
     9  S    2.624068   1.789204   1.804692   2.634398   3.675305
                    6          7          8          9
     6  H    0.000000
     7  H    4.588158   0.000000
     8  H    4.340459   2.627886   0.000000
     9  S    2.502774   2.500825   3.668748   0.000000
 Stoichiometry    C4H4S
 Framework group  C1[X(C4H4S)]
 Deg. of freedom    21
 Full point group                 C1      NOp   1
 RotChk:  IX=1 Diff= 6.47D-02
 Largest Abelian subgroup         C1      NOp   1
 Largest concise Abelian subgroup C1      NOp   1
                         Standard orientation:                         
 ---------------------------------------------------------------------
 Center     Atomic      Atomic             Coordinates (Angstroms)
 Number     Number       Type             X           Y           Z
 ---------------------------------------------------------------------
      1          6           0        1.275486   -0.739815    0.005187
      2          6           0        0.016387   -1.263126   -0.001039
      3          6           0        0.057263    1.268352   -0.003622
      4          6           0        1.301579    0.710791    0.003331
      5          1           0        2.215154    1.268938   -0.027077
      6          1           0       -0.214694    2.295953    0.014887
      7          1           0       -0.266225   -2.291836   -0.011985
      8          1           0        2.177589   -1.325692   -0.000906
      9         16           0       -1.238507    0.012214    0.000121
 ---------------------------------------------------------------------
 Rotational constants (GHZ):      7.7645830      5.1253421      3.0874468
 Leave Link  202 at Wed Mar 23 16:43:22 2016, MaxMem=    33554432 cpu:         0.0
 (Enter /opt/g09/g09/l301.exe)

 Semi-emprical parameters in input format:
 Method=8 CoreType=1 PeptideFC=0.0107799116 RIJScale=0.5291772086
 ****
 H       
 PQN=1 NValence=1 F0ss=0.4721553327 ZetaOverlap=1.2834277808 U=-0.4188110042
 Beta=-0.2268825074 CoreKO=1.0589197790 KON=0,0,0,1.0589197790 KON=1,0,1,1.0678914578
 KON=0,1,1,0.9991877409 KON=2,1,1,1.0482727950 EISol=-0.4188110042 EHeat=0.0830298228
 Alpha=1.5697008096
 GCore=0.0085277107,1.5022803151,2.2676713595
 GCore=0.0003481659,1.4001425905,3.4015070392
 GCore=-0.0012733648,0.5382405043,3.7912913148
 ****
 C       
 PQN=2,2 NValence=4 F0ss=0.4581203714 F0sp=0.4551311508 F0pp=0.3768030831 F2pp=0.1898715146
 G1sp=0.2577005483
 ZetaOverlap=1.7959818712,1.6022741171
 U=-1.9622063813,-1.4557965594
 Beta=-0.5913802681,-0.2836784428 DDN=0,1,0.8556599190 DDN=1,1,0.7190140577
 CoreKO=1.0843477999 KON=0,0,0,1.1742403799 KON=1,0,1,0.8219701441 KON=0,1,1,1.0386578133
 KON=2,1,1,0.7783928119 EISol=-4.4398989268 EHeat=0.2723305520 Alpha=1.4014062429
 DipHyp=1.7112213843
 GCore=0.0007885612,1.4001425905,3.0235618126
 GCore=0.0027097888,1.5281570636,3.4959933458
 GCore=-0.0014774999,1.3110293289,3.8274143832
 GCore=-0.0000873394,1.4001425905,5.0077742521
 ****
 S       
 PQN=3,3 NValence=6 F0ss=0.4364624013 F0sp=0.3183640731 F0pp=0.3136271218 F2pp=0.3456917167
 G1sp=0.2964482287
 ZetaOverlap=2.3061447044,1.6672630000,1.0255342438
 U=-2.0270271906,-1.7796976476
 Beta=-0.1387870751,-0.2905136336 DDN=0,1,0.8912644417 DDN=1,1,0.9573921396
 CoreKO=1.1543033468 KON=0,0,0,1.1590494055 KON=1,0,1,0.8464368816 KON=0,1,1,1.1643486136
 KON=2,1,1,0.7746001785 EISol=-7.0460287497 EHeat=0.1058151363 Alpha=1.2167665550
 DipHyp=1.7824263330
 GCore=-0.0301103914,1.2863644833,1.4919778348
 GCore=-0.0008024464,1.4979177626,2.8887298674
 GCore=0.0007987635,3.9199477853,3.7967867236
 ****
 
 Standard basis: VSTO-6G (5D, 7F)
 Ernie: Thresh=  0.10000D-02 Tol=  0.10000D-05 Strict=F.
  NNHCO=     0 NNPyr=     0 NCTC=     0               EPep=         0.000000000
    EC=        63.151306666  ECS=         1.644287574   EG=         0.118646020
   EHC=         0.000000000  EAt=       -26.480868474  AtH=         1.527256636
 EPDDG=         0.000000000  ECC=        64.914240260 EAtT=        28.008125109
 There are    24 symmetry adapted cartesian basis functions of A   symmetry.
 There are    24 symmetry adapted basis functions of A   symmetry.
    24 basis functions,   144 primitive gaussians,    24 cartesian basis functions
    13 alpha electrons       13 beta electrons
       nuclear repulsion energy        92.9223653694 Hartrees.
 IExCor=    0 DFT=F Ex=HF Corr=None ExCW=0 ScaHFX=  1.000000
 ScaDFX=  1.000000  1.000000  1.000000  1.000000 ScalE2=  1.000000  1.000000
 IRadAn=      0 IRanWt=     -1 IRanGd=            0 ICorTp=0 IEmpDi=  4
 Integral buffers will be    131072 words long.
 Regular integral format.
 Two-electron integral symmetry is turned off.
 Leave Link  301 at Wed Mar 23 16:43:22 2016, MaxMem=    33554432 cpu:         0.0
 (Enter /opt/g09/g09/l302.exe)
 Do NDO integrals.
 NPDir=0 NMtPBC=     1 NCelOv=     1 NCel=       1 NClECP=     1 NCelD=      1
         NCelK=      1 NCelE2=     1 NClLst=     1 CellRange=     0.0.
 One-electron integrals computed using PRISM.
 NBasis=    24 RedAO= F EigKep=  0.00D+00  NBF=    24
 NBsUse=    24 1.00D-04 EigRej=  0.00D+00 NBFU=    24
 Leave Link  302 at Wed Mar 23 16:43:22 2016, MaxMem=    33554432 cpu:         0.0
 (Enter /opt/g09/g09/l303.exe)
 DipDrv:  MaxL=1.
 Leave Link  303 at Wed Mar 23 16:43:22 2016, MaxMem=    33554432 cpu:         0.0
 (Enter /opt/g09/g09/l401.exe)
 Initial guess from the checkpoint file:  "/opt/g09/scratch/Gau-7735.chk"
 B after Tr=     0.000000    0.000000    0.000000
         Rot=    0.999881    0.000021    0.000115    0.015416 Ang=   1.77 deg.
 Guess basis will be translated and rotated to current coordinates.
 JPrj=0 DoOrth=T DoCkMO=T.
 Leave Link  401 at Wed Mar 23 16:43:22 2016, MaxMem=    33554432 cpu:         0.0
 (Enter /opt/g09/g09/l502.exe)
 Closed shell SCF:
 Using DIIS extrapolation, IDIIS=  1040.
 Overlap will be assumed to be unity.
 Two-electron integral symmetry not used.
 Keep J ints in memory in canonical form, NReq=888082.
 IVT=       79475 IEndB=       79475 NGot=    33554432 MDV=    33473473
 LenX=    33473473 LenY=    33472456
 Requested convergence on RMS density matrix=1.00D-08 within 128 cycles.
 Requested convergence on MAX density matrix=1.00D-06.
 Requested convergence on             energy=1.00D-06.
 No special actions if energy rises.
 FoFCou: FMM=F IPFlag=           0 FMFlag=           0 FMFlg1=           0
         NFxFlg=           0 DoJE=F BraDBF=F KetDBF=F FulRan=T
         wScrn=  0.000000 ICntrl=     600 IOpCl=  2 I1Cent=           0 NGrid=           0
         NMat0=    1 NMatS0=     54 NMatT0=    0 NMatD0=    1 NMtDS0=    0 NMtDT0=    0
 Symmetry not used in FoFCou.

 Cycle   1  Pass 1  IDiag  1:
 E= 0.282391154432304    
 DIIS: error= 4.25D-03 at cycle   1 NSaved=   1.
 NSaved= 1 IEnMin= 1 EnMin= 0.282391154432304     IErMin= 1 ErrMin= 4.25D-03
 ErrMax= 4.25D-03  0.00D+00 EMaxC= 1.00D-01 BMatC= 6.08D-04 BMatP= 6.08D-04
 IDIUse=3 WtCom= 9.57D-01 WtEn= 4.25D-02
 Coeff-Com:  0.100D+01
 Coeff-En:   0.100D+01
 Coeff:      0.100D+01
 GapD=    2.000 DampG=2.000 DampE=1.000 DampFc=2.0000 IDamp=-1.
 RMSDP=2.19D-03 MaxDP=1.19D-02              OVMax= 0.00D+00

 Cycle   2  Pass 1  IDiag  3:
 E= 0.279864378906069     Delta-E=       -0.002526775526 Rises=F Damp=F
 DIIS: error= 1.99D-03 at cycle   2 NSaved=   2.
 NSaved= 2 IEnMin= 2 EnMin= 0.279864378906069     IErMin= 2 ErrMin= 1.99D-03
 ErrMax= 1.99D-03  0.00D+00 EMaxC= 1.00D-01 BMatC= 1.12D-04 BMatP= 6.08D-04
 IDIUse=3 WtCom= 9.80D-01 WtEn= 1.99D-02
 Coeff-Com: -0.636D+00 0.164D+01
 Coeff-En:   0.000D+00 0.100D+01
 Coeff:     -0.623D+00 0.162D+01
 Gap=     0.371 Goal=   None    Shift=    0.000
 RMSDP=1.69D-03 MaxDP=9.44D-03 DE=-2.53D-03 OVMax= 1.08D-02

 Cycle   3  Pass 1  IDiag  3:
 E= 0.279177229451562     Delta-E=       -0.000687149455 Rises=F Damp=F
 DIIS: error= 3.22D-04 at cycle   3 NSaved=   3.
 NSaved= 3 IEnMin= 3 EnMin= 0.279177229451562     IErMin= 3 ErrMin= 3.22D-04
 ErrMax= 3.22D-04  0.00D+00 EMaxC= 1.00D-01 BMatC= 4.12D-06 BMatP= 1.12D-04
 IDIUse=3 WtCom= 9.97D-01 WtEn= 3.22D-03
 Coeff-Com:  0.276D+00-0.829D+00 0.155D+01
 Coeff-En:   0.000D+00 0.000D+00 0.100D+01
 Coeff:      0.276D+00-0.826D+00 0.155D+01
 Gap=     0.371 Goal=   None    Shift=    0.000
 RMSDP=4.11D-04 MaxDP=2.01D-03 DE=-6.87D-04 OVMax= 2.58D-03

 Cycle   4  Pass 1  IDiag  3:
 E= 0.279146433742028     Delta-E=       -0.000030795710 Rises=F Damp=F
 DIIS: error= 4.89D-05 at cycle   4 NSaved=   4.
 NSaved= 4 IEnMin= 4 EnMin= 0.279146433742028     IErMin= 4 ErrMin= 4.89D-05
 ErrMax= 4.89D-05  0.00D+00 EMaxC= 1.00D-01 BMatC= 1.59D-07 BMatP= 4.12D-06
 IDIUse=1 WtCom= 1.00D+00 WtEn= 0.00D+00
 Coeff-Com: -0.136D+00 0.417D+00-0.878D+00 0.160D+01
 Coeff:     -0.136D+00 0.417D+00-0.878D+00 0.160D+01
 Gap=     0.371 Goal=   None    Shift=    0.000
 RMSDP=8.97D-05 MaxDP=4.76D-04 DE=-3.08D-05 OVMax= 1.04D-03

 Cycle   5  Pass 1  IDiag  3:
 E= 0.279145001320813     Delta-E=       -0.000001432421 Rises=F Damp=F
 DIIS: error= 1.48D-05 at cycle   5 NSaved=   5.
 NSaved= 5 IEnMin= 5 EnMin= 0.279145001320813     IErMin= 5 ErrMin= 1.48D-05
 ErrMax= 1.48D-05  0.00D+00 EMaxC= 1.00D-01 BMatC= 1.18D-08 BMatP= 1.59D-07
 IDIUse=1 WtCom= 1.00D+00 WtEn= 0.00D+00
 Coeff-Com:  0.449D-01-0.139D+00 0.311D+00-0.777D+00 0.156D+01
 Coeff:      0.449D-01-0.139D+00 0.311D+00-0.777D+00 0.156D+01
 Gap=     0.371 Goal=   None    Shift=    0.000
 RMSDP=2.82D-05 MaxDP=1.71D-04 DE=-1.43D-06 OVMax= 3.74D-04

 Cycle   6  Pass 1  IDiag  3:
 E= 0.279144882555769     Delta-E=       -0.000000118765 Rises=F Damp=F
 DIIS: error= 3.58D-06 at cycle   6 NSaved=   6.
 NSaved= 6 IEnMin= 6 EnMin= 0.279144882555769     IErMin= 6 ErrMin= 3.58D-06
 ErrMax= 3.58D-06  0.00D+00 EMaxC= 1.00D-01 BMatC= 7.16D-10 BMatP= 1.18D-08
 IDIUse=1 WtCom= 1.00D+00 WtEn= 0.00D+00
 Coeff-Com: -0.533D-02 0.170D-01-0.416D-01 0.151D+00-0.549D+00 0.143D+01
 Coeff:     -0.533D-02 0.170D-01-0.416D-01 0.151D+00-0.549D+00 0.143D+01
 Gap=     0.371 Goal=   None    Shift=    0.000
 RMSDP=6.64D-06 MaxDP=3.97D-05 DE=-1.19D-07 OVMax= 8.76D-05

 Cycle   7  Pass 1  IDiag  3:
 E= 0.279144876031353     Delta-E=       -0.000000006524 Rises=F Damp=F
 DIIS: error= 8.79D-07 at cycle   7 NSaved=   7.
 NSaved= 7 IEnMin= 7 EnMin= 0.279144876031353     IErMin= 7 ErrMin= 8.79D-07
 ErrMax= 8.79D-07  0.00D+00 EMaxC= 1.00D-01 BMatC= 4.19D-11 BMatP= 7.16D-10
 IDIUse=1 WtCom= 1.00D+00 WtEn= 0.00D+00
 Coeff-Com:  0.187D-03-0.827D-03 0.396D-02-0.352D-01 0.199D+00-0.731D+00
 Coeff-Com:  0.156D+01
 Coeff:      0.187D-03-0.827D-03 0.396D-02-0.352D-01 0.199D+00-0.731D+00
 Coeff:      0.156D+01
 Gap=     0.371 Goal=   None    Shift=    0.000
 RMSDP=1.41D-06 MaxDP=7.58D-06 DE=-6.52D-09 OVMax= 1.51D-05

 Cycle   8  Pass 1  IDiag  3:
 E= 0.279144875708724     Delta-E=       -0.000000000323 Rises=F Damp=F
 DIIS: error= 1.71D-07 at cycle   8 NSaved=   8.
 NSaved= 8 IEnMin= 8 EnMin= 0.279144875708724     IErMin= 8 ErrMin= 1.71D-07
 ErrMax= 1.71D-07  0.00D+00 EMaxC= 1.00D-01 BMatC= 1.66D-12 BMatP= 4.19D-11
 IDIUse=1 WtCom= 1.00D+00 WtEn= 0.00D+00
 Coeff-Com:  0.105D-03-0.224D-03-0.372D-03 0.115D-01-0.765D-01 0.305D+00
 Coeff-Com: -0.769D+00 0.153D+01
 Coeff:      0.105D-03-0.224D-03-0.372D-03 0.115D-01-0.765D-01 0.305D+00
 Coeff:     -0.769D+00 0.153D+01
 Gap=     0.371 Goal=   None    Shift=    0.000
 RMSDP=2.55D-07 MaxDP=1.49D-06 DE=-3.23D-10 OVMax= 1.69D-06

 Cycle   9  Pass 1  IDiag  3:
 E= 0.279144875696446     Delta-E=       -0.000000000012 Rises=F Damp=F
 DIIS: error= 5.87D-08 at cycle   9 NSaved=   9.
 NSaved= 9 IEnMin= 9 EnMin= 0.279144875696446     IErMin= 9 ErrMin= 5.87D-08
 ErrMax= 5.87D-08  0.00D+00 EMaxC= 1.00D-01 BMatC= 1.11D-13 BMatP= 1.66D-12
 IDIUse=1 WtCom= 1.00D+00 WtEn= 0.00D+00
 Coeff-Com: -0.143D-03 0.389D-03-0.392D-03-0.459D-02 0.364D-01-0.152D+00
 Coeff-Com:  0.399D+00-0.951D+00 0.167D+01
 Coeff:     -0.143D-03 0.389D-03-0.392D-03-0.459D-02 0.364D-01-0.152D+00
 Coeff:      0.399D+00-0.951D+00 0.167D+01
 Gap=     0.371 Goal=   None    Shift=    0.000
 RMSDP=7.53D-08 MaxDP=5.97D-07 DE=-1.23D-11 OVMax= 5.87D-07

 Cycle  10  Pass 1  IDiag  3:
 E= 0.279144875695479     Delta-E=       -0.000000000001 Rises=F Damp=F
 DIIS: error= 1.46D-08 at cycle  10 NSaved=  10.
 NSaved=10 IEnMin=10 EnMin= 0.279144875695479     IErMin=10 ErrMin= 1.46D-08
 ErrMax= 1.46D-08  0.00D+00 EMaxC= 1.00D-01 BMatC= 7.08D-15 BMatP= 1.11D-13
 IDIUse=1 WtCom= 1.00D+00 WtEn= 0.00D+00
 Coeff-Com:  0.684D-04-0.184D-03 0.173D-03 0.239D-02-0.187D-01 0.782D-01
 Coeff-Com: -0.206D+00 0.507D+00-0.104D+01 0.168D+01
 Coeff:      0.684D-04-0.184D-03 0.173D-03 0.239D-02-0.187D-01 0.782D-01
 Coeff:     -0.206D+00 0.507D+00-0.104D+01 0.168D+01
 Gap=     0.371 Goal=   None    Shift=    0.000
 RMSDP=2.10D-08 MaxDP=1.74D-07 DE=-9.66D-13 OVMax= 1.87D-07

 Cycle  11  Pass 1  IDiag  3:
 E= 0.279144875695209     Delta-E=        0.000000000000 Rises=F Damp=F
 DIIS: error= 3.13D-09 at cycle  11 NSaved=  11.
 NSaved=11 IEnMin=11 EnMin= 0.279144875695209     IErMin=11 ErrMin= 3.13D-09
 ErrMax= 3.13D-09  0.00D+00 EMaxC= 1.00D-01 BMatC= 4.08D-16 BMatP= 7.08D-15
 IDIUse=1 WtCom= 1.00D+00 WtEn= 0.00D+00
 Coeff-Com: -0.213D-04 0.584D-04-0.636D-04-0.630D-03 0.512D-02-0.216D-01
 Coeff-Com:  0.575D-01-0.144D+00 0.315D+00-0.701D+00 0.149D+01
 Coeff:     -0.213D-04 0.584D-04-0.636D-04-0.630D-03 0.512D-02-0.216D-01
 Coeff:      0.575D-01-0.144D+00 0.315D+00-0.701D+00 0.149D+01
 Gap=     0.371 Goal=   None    Shift=    0.000
 RMSDP=5.22D-09 MaxDP=3.89D-08 DE=-2.70D-13 OVMax= 5.28D-08

 Cycle  12  Pass 2  IDiag  1:
 SCF Done:  E(RAM1) =  0.279144875695     A.U. after   12 cycles
            NFock= 11  Conv=0.52D-08     -V/T= 1.0205
 KE=-1.361871110418D+01 PE=-1.548564396044D+02 EE= 7.583193021482D+01
 Leave Link  502 at Wed Mar 23 16:43:22 2016, MaxMem=    33554432 cpu:         0.0
 (Enter /opt/g09/g09/l701.exe)
 Compute integral first derivatives.
 ... and contract with generalized density number  0.
 Leave Link  701 at Wed Mar 23 16:43:22 2016, MaxMem=    33554432 cpu:         0.0
 (Enter /opt/g09/g09/l702.exe)
 L702 exits ... SP integral derivatives will be done elsewhere.
 Leave Link  702 at Wed Mar 23 16:43:22 2016, MaxMem=    33554432 cpu:         0.0
 (Enter /opt/g09/g09/l703.exe)
 Compute integral first derivatives, UseDBF=F ICtDFT=           0.
 Integral derivatives from FoFJK, PRISM(SPDF).
 Calling FoFJK, ICntrl=      2127 FMM=F ISym2X=0 I1Cent= 0 IOpClX= 0 NMat=1 NMatS=1 NMatT=0.
 FoFJK:  IHMeth= 8 ICntrl=    2127 DoSepK=F KAlg= 0 I1Cent=   0 FoldK=F
 IRaf=         0 NMat=   1 IRICut=       1 DoRegI=T DoRafI=F ISym2E= 0.
 FoFCou: FMM=F IPFlag=           0 FMFlag=      100000 FMFlg1=         800
         NFxFlg=           0 DoJE=F BraDBF=F KetDBF=F FulRan=T
         wScrn=  0.000000 ICntrl=    2127 IOpCl=  0 I1Cent=           0 NGrid=           0
         NMat0=    1 NMatS0=      1 NMatT0=    0 NMatD0=    1 NMtDS0=    0 NMtDT0=    0
 Symmetry not used in FoFCou.
 Leave Link  703 at Wed Mar 23 16:43:22 2016, MaxMem=    33554432 cpu:         0.0
 (Enter /opt/g09/g09/l716.exe)
 Dipole        = 4.99559821D-01 3.20413491D-03-2.66425739D-03
 ***** Axes restored to original set *****
 -------------------------------------------------------------------
 Center     Atomic                   Forces (Hartrees/Bohr)
 Number     Number              X              Y              Z
 -------------------------------------------------------------------
      1        6          -0.005464786    0.002535249   -0.000847660
      2        6           0.012933538    0.000044926   -0.000282010
      3        6           0.009537839   -0.005172214    0.002261523
      4        6          -0.011516991   -0.004304510   -0.002507001
      5        1           0.001266568   -0.000120112    0.001555105
      6        1          -0.001352766    0.000452769   -0.001095412
      7        1          -0.001490668    0.001974946    0.000418184
      8        1          -0.001725751    0.001426389    0.000460489
      9       16          -0.002186983    0.003162557    0.000036781
 -------------------------------------------------------------------
 Cartesian Forces:  Max     0.012933538 RMS     0.004381102
 Leave Link  716 at Wed Mar 23 16:43:22 2016, MaxMem=    33554432 cpu:         0.0
 (Enter /opt/g09/g09/l103.exe)

 GradGradGradGradGradGradGradGradGradGradGradGradGradGradGradGradGradGrad
 Berny optimization.
 Using GEDIIS/GDIIS optimizer.
 FormGI is forming the generalized inverse of G from B-inverse, IUseBI=4.
 Internal  Forces:  Max     0.008995814 RMS     0.002613059
 Search for a local minimum.
 Step number   3 out of a maximum of   48
 All quantities printed in internal units (Hartrees-Bohrs-Radians)
 RMS Force = .26131D-02 SwitMx=.10000D-02 MixMth= 1
 Mixed Optimization -- RFO/linear search
 Update second derivatives using D2CorX and points    2    3
 DE= -2.63D-03 DEPred=-2.97D-03 R= 8.86D-01
 TightC=F SS=  1.41D+00  RLast= 3.39D-01 DXNew= 8.4853D-01 1.0179D+00
 Trust test= 8.86D-01 RLast= 3.39D-01 DXMaxT set to 8.49D-01
 ITU=  1  1  0
 Use linear search instead of GDIIS.
     Eigenvalues ---    0.01318   0.01489   0.01748   0.01940   0.01960
     Eigenvalues ---    0.02023   0.12335   0.15987   0.15998   0.16035
     Eigenvalues ---    0.21434   0.22665   0.26284   0.27806   0.30240
     Eigenvalues ---    0.33247   0.36643   0.39518   0.44520   0.47887
     Eigenvalues ---    0.64118
 RFO step:  Lambda=-7.78214084D-04 EMin= 1.31826279D-02
 Quartic linear search produced a step of -0.01538.
 Iteration  1 RMS(Cart)=  0.01129509 RMS(Int)=  0.00025759
 Iteration  2 RMS(Cart)=  0.00022905 RMS(Int)=  0.00015815
 Iteration  3 RMS(Cart)=  0.00000005 RMS(Int)=  0.00015815
 ITry= 1 IFail=0 DXMaxC= 3.31D-02 DCOld= 1.00D+10 DXMaxT= 8.49D-01 DXLimC= 3.00D+00 Rises=F
 Variable       Old X    -DE/DX   Delta X   Delta X   Delta X     New X
                                 (Linear)    (Quad)   (Total)
    R1        2.57670  -0.00900  -0.00009  -0.01852  -0.01864   2.55806
[...]
                                                                               X                                                     
                                                                               X                                                     
                                                                               X                                                     
                                                                               X                                                     
                                                                               X                                                     
                                                                               X                                                     
                                                                               X                                                     
                                                                               X                                                     
                                                                               X                                                     
 
 ***** Axes restored to original set *****
 -------------------------------------------------------------------
 Center     Atomic                   Forces (Hartrees/Bohr)
 Number     Number              X              Y              Z
 -------------------------------------------------------------------
      1        6          -0.073382059    0.106274460   -0.002969970
      2        6          -0.001911718   -0.024801021    0.001553532
      3        6          -0.062255999    0.035205134    0.005658152
      4        6           0.092229468   -0.028601816   -0.010354509
      5        1          -0.023294037   -0.024127968    0.009091016
      6        1           0.009216248   -0.029348831   -0.007715910
      7        1          -0.007664283    0.002364044   -0.002505207
      8        1           0.057041776   -0.037406815    0.000292108
      9       16           0.010020605    0.000442814    0.006950789
 -------------------------------------------------------------------
 Cartesian Forces:  Max     0.106274460 RMS     0.037993099
 Z-matrix is all fixed cartesians, so copy forces.
 Force constants in Cartesian coordinates: 
                1             2             3             4             5 
      1  0.901607D+00
      2 -0.165537D+00  0.659528D+00
      3 -0.200928D-01  0.864553D-02  0.116902D+00
      4 -0.361626D+00 -0.228139D-01 -0.447739D-02  0.428917D+00
      5 -0.138069D+00 -0.108772D+00  0.762559D-03  0.205657D+00  0.565687D+00
      6  0.266889D-02  0.189883D-02 -0.598555D-01 -0.790675D-02 -0.329098D-01
      7 -0.556719D-01  0.322841D-01  0.611284D-02  0.100499D+00 -0.959769D-02
      8  0.610730D-01 -0.448327D-01 -0.101455D-02  0.158413D-01 -0.701111D-01
      9  0.598130D-02  0.264439D-02  0.826526D-03 -0.291804D-02 -0.464631D-02
     10 -0.570915D-01 -0.111426D-01 -0.332987D-02 -0.406300D-01 -0.652683D-01
     11  0.292377D-01 -0.355661D+00  0.304275D-02 -0.450718D-01 -0.534287D-01
     12 -0.400136D-02  0.211817D-03 -0.768565D-01  0.504036D-02 -0.222490D-03
     13  0.404189D-02 -0.241319D-02  0.562711D-03 -0.311831D-02 -0.362893D-02
     14 -0.221256D-01 -0.212655D-01  0.136973D-02 -0.455914D-02 -0.412362D-02
     15 -0.228822D-02 -0.185225D-02  0.694008D-02  0.326970D-02  0.244359D-02
     16 -0.206335D-02 -0.577394D-04  0.997058D-04  0.845520D-04 -0.939797D-03
     17  0.227382D-02  0.188741D-03 -0.116938D-02 -0.151008D-02  0.136916D-02
     18  0.126386D-02 -0.306053D-03  0.586211D-02  0.920338D-03 -0.142249D-02
     19 -0.144141D-01 -0.358744D-01  0.252363D-02 -0.445245D-01 -0.411435D-01
     20 -0.720501D-02 -0.156481D-01  0.250159D-02 -0.582528D-01 -0.337039D+00
     21 -0.902921D-03  0.181499D-02  0.121119D-01  0.584090D-02  0.327305D-01
     22 -0.375396D+00  0.217998D+00  0.206382D-01 -0.376140D-01  0.153963D-01
     23  0.216858D+00 -0.145481D+00 -0.117858D-01 -0.135416D-01  0.110077D-01
     24  0.216086D-01 -0.102995D-01 -0.115785D-01  0.826596D-03 -0.178245D-02
     25 -0.393869D-01 -0.124433D-01 -0.203686D-02 -0.419872D-01  0.375935D-01
     26  0.234940D-01  0.319435D-01 -0.235250D-02 -0.757497D-01 -0.458912D-02
     27 -0.423774D-02 -0.275790D-02  0.564851D-02 -0.595230D-03  0.504713D-02
                6             7             8             9            10 
      6  0.113274D+00
      7 -0.110102D-02  0.531917D+00
      8  0.225849D-02 -0.252671D+00  0.543794D+00
      9  0.595676D-02 -0.240834D-01  0.463064D-01  0.117480D+00
     10  0.262454D-02 -0.422471D+00  0.229974D+00  0.206392D-01  0.793806D+00
     11 -0.915010D-03  0.126790D+00 -0.150906D+00 -0.105655D-01 -0.744359D-01
     12  0.468851D-02  0.109256D-01 -0.100225D-01 -0.457787D-01 -0.287229D-01
     13  0.943367D-03 -0.421566D-01 -0.150235D-01  0.255147D-02 -0.179893D+00
     14  0.235535D-03  0.836528D-02  0.711714D-02 -0.269957D-03 -0.862566D-01
     15  0.498689D-02  0.264636D-02  0.373168D-02  0.935527D-02  0.161853D-01
     16 -0.115142D-04 -0.529802D-01  0.339033D-01  0.642244D-02 -0.105745D-01
     17 -0.401389D-03  0.489919D-01 -0.270118D+00 -0.322002D-01  0.547166D-02
     18  0.132497D-02  0.694796D-02 -0.352989D-01 -0.576951D-01 -0.118430D-02
     19  0.523269D-02 -0.275094D-03  0.706625D-03  0.862057D-04 -0.350900D-02
     20  0.298584D-01  0.209909D-02  0.401889D-03  0.175984D-03 -0.290745D-02
     21 -0.444870D-01 -0.301869D-03  0.106972D-02  0.119729D-02  0.816049D-03
     22  0.250235D-03 -0.487309D-02  0.337858D-02  0.760503D-03  0.412180D-02
     23  0.178334D-04  0.391679D-02 -0.300060D-02 -0.637373D-04  0.281196D-01
     24  0.731546D-02  0.327497D-03 -0.104044D-02  0.497188D-02 -0.451869D-04
     25 -0.270045D-02 -0.539879D-01 -0.771827D-01 -0.943999D-02 -0.837582D-01
     26 -0.428209D-04  0.398217D-01 -0.123441D-01 -0.138089D-02 -0.235548D-01
     27 -0.332048D-01 -0.147334D-02 -0.599022D-02 -0.363141D-01 -0.698306D-02
               11            12            13            14            15 
     11  0.691433D+00
     12  0.125848D-02  0.144405D+00
     13 -0.879332D-01  0.156917D-01  0.220896D+00
     14 -0.114080D+00  0.989442D-02  0.103214D+00  0.134780D+00
     15  0.955928D-02 -0.581846D-01 -0.196048D-01 -0.117886D-01  0.384560D-01
     16  0.325799D-01  0.368853D-02  0.807895D-03  0.171541D-03 -0.297338D-03
     17 -0.156091D-01 -0.309955D-02  0.228835D-03  0.448338D-03  0.209411D-03
     18 -0.245504D-02  0.839269D-02 -0.961474D-04 -0.294506D-05 -0.160892D-02
     19 -0.112521D-02  0.000000D+00  0.449786D-03 -0.670269D-03 -0.218708D-03
     20  0.640000D-03  0.857635D-03 -0.273205D-03 -0.693358D-03 -0.877579D-04
     21 -0.510990D-03  0.563092D-02  0.878234D-04  0.551106D-04 -0.200476D-02
     22  0.346017D-02  0.496819D-04  0.715953D-03  0.102836D-03 -0.445499D-03
     23 -0.260175D-01 -0.355706D-03  0.122486D-03  0.904480D-04 -0.468737D-04
     24 -0.150048D-02  0.724423D-02 -0.292229D-03 -0.275204D-04 -0.115015D-02
     25  0.164980D-01 -0.267142D-02 -0.174355D-02  0.175827D-02  0.753098D-03
     26  0.236292D-01  0.147786D-02  0.570713D-02 -0.227352D-02 -0.216855D-02
     27  0.208673D-02  0.104590D-01  0.156034D-03  0.534224D-03  0.320995D-02
               16            17            18            19            20 
     16  0.663951D-01
     17 -0.542399D-01  0.297317D+00
     18 -0.783933D-02  0.386529D-01  0.396103D-01
     19  0.759839D-04  0.113673D-03  0.212990D-03  0.608822D-01
     20 -0.132693D-03 -0.265524D-03 -0.281874D-03  0.679853D-01  0.360626D+00
     21  0.194945D-03  0.234676D-03 -0.113818D-02 -0.634508D-02 -0.342162D-01
     22  0.508926D-03  0.114773D-05  0.174599D-03  0.715848D-03 -0.705253D-05
     23  0.647415D-03 -0.594428D-03 -0.135037D-03 -0.310493D-04  0.496720D-03
     24 -0.185428D-03  0.324786D-03 -0.160435D-02 -0.131758D-03 -0.302837D-03
     25 -0.225437D-02 -0.133088D-02 -0.399943D-03  0.598698D-03 -0.130600D-02
     26 -0.119319D-01 -0.127362D-01  0.124936D-02  0.100388D-01 -0.851886D-02
     27 -0.207214D-02 -0.255105D-02  0.685618D-02 -0.136017D-02  0.149497D-02
               21            22            23            24            25 
     21  0.231151D-01
     22 -0.162093D-04  0.409639D+00
     23 -0.184835D-03 -0.235612D+00  0.168775D+00
     24 -0.142234D-02 -0.214675D-01  0.127358D-01 -0.754545D-02
     25  0.626289D-03  0.218092D-02 -0.480179D-03 -0.640596D-03  0.220338D+00
     26 -0.992989D-03 -0.471808D-02 -0.527713D-02  0.189273D-02  0.368934D-01
     27  0.699693D-02  0.561266D-04 -0.181678D-03  0.376910D-02  0.165096D-01
               26            27 
     26 -0.983416D-02
     27  0.231779D-02  0.325796D-01
 Leave Link  716 at Wed Mar 23 16:43:23 2016, MaxMem=    33554432 cpu:         0.0
 (Enter /opt/g09/g09/l103.exe)

 GradGradGradGradGradGradGradGradGradGradGradGradGradGradGradGradGradGrad
 Berny optimization.
 Search for a local minimum.
 Step number   1 out of a maximum of    2
 All quantities printed in internal units (Hartrees-Bohrs-Radians)
 Second derivative matrix not updated -- analytic derivatives used.
 ITU=  0
     Eigenvalues ---   -0.05882  -0.00531   0.01334   0.03165   0.03903
     Eigenvalues ---    0.04971   0.06357   0.09774   0.11059   0.13501
     Eigenvalues ---    0.18060   0.18284   0.24208   0.24984   0.41968
     Eigenvalues ---    0.50221   0.62498   0.86430   0.99779   1.36641
     Eigenvalues ---    1.44950
 Eigenvalue     1 is  -5.88D-02 should be greater than     0.000000 Eigenvector:
                          Y9        X2        X8        X3        Y2
   1                    0.68295   0.33129   0.27640  -0.24612  -0.23973
                          Y3        X5        Y1        Y7        Y4
   1                   -0.22278  -0.17839  -0.16492  -0.14539  -0.13425
 Eigenvalue     2 is  -5.31D-03 should be greater than     0.000000 Eigenvector:
                          Z8        Z5        Z6        Z4        Z1
   1                    0.85229  -0.27559   0.24403  -0.22090  -0.15238
                          Z2        Z7        Z9        Z3        X8
   1                   -0.15064  -0.14696   0.09109   0.07547   0.05894
 Quadratic step=7.481D-01 exceeds max=3.000D-01 adjusted using Lamda=-3.284D-02.
 Angle between NR and scaled steps=  39.40 degrees.
 Angle between quadratic step and forces=  49.57 degrees.
 Linear search not attempted -- first point.
 TrRot=  0.001986  0.010886  0.002646 -0.047518  0.010954  0.050005
 Variable       Old X    -DE/DX   Delta X   Delta X   Delta X     New X
                                 (Linear)    (Quad)   (Total)
    X1        1.75287  -0.07338   0.00000  -0.05175  -0.04689   1.70599
    Y1       -1.44367   0.10627   0.00000   0.13967   0.15481  -1.28886
    Z1        0.02514  -0.00297   0.00000  -0.04852  -0.06519  -0.04005
    X2       -0.75930  -0.00191   0.00000  -0.00626   0.00176  -0.75754
    Y2       -2.34186  -0.02480   0.00000  -0.03059  -0.02161  -2.36347
    Z2        0.02968   0.00155   0.00000  -0.02154  -0.01182   0.01786
    X3       -0.67194  -0.06226   0.00000  -0.06061  -0.06362  -0.73555
    Y3        2.44376   0.03521   0.00000  -0.01864  -0.00963   2.43413
    Z3        0.10980   0.00566   0.00000  -0.02007  -0.00808   0.10172
    X4        1.62014   0.09223   0.00000   0.08076   0.07927   1.69941
    Y4        1.27807  -0.02860   0.00000   0.02455   0.03968   1.31774
    Z4        0.02427  -0.01035   0.00000  -0.03628  -0.05153  -0.02726
    X5        3.37040  -0.02329   0.00000   0.00098  -0.00452   3.36588
    Y5        2.50268  -0.02413   0.00000  -0.06770  -0.04837   2.45431
    Z5       -0.20112   0.00909   0.00000   0.08927   0.05638  -0.14474
    X6       -1.07680   0.00922   0.00000   0.02177   0.01678  -1.06002
    Y6        4.48727  -0.02935   0.00000  -0.08638  -0.07832   4.40895
    Z6        0.42707  -0.00772   0.00000  -0.07134  -0.05476   0.37231
    X7       -1.09587  -0.00766   0.00000  -0.04481  -0.02996  -1.12582
    Y7       -4.33392   0.00236   0.00000  -0.01250  -0.00454  -4.33846
    Z7        0.24063  -0.00251   0.00000  -0.05746  -0.04472   0.19591
    X8        3.35348   0.05704   0.00000  -0.00245   0.00582   3.35929
    Y8       -2.41369  -0.03741   0.00000  -0.04860  -0.02938  -2.44307
    Z8       -0.06682   0.00029   0.00000   0.10119   0.06583  -0.00099
    X9       -3.07100   0.01002   0.00000   0.04092   0.04136  -3.02964
    Y9        0.12618   0.00044   0.00000  -0.00605  -0.00264   0.12354
    Z9       -0.20973   0.00695   0.00000   0.07803   0.11390  -0.09583
         Item               Value     Threshold  Converged?
 Maximum Force            0.106274     0.000450     NO 
 RMS     Force            0.037993     0.000300     NO 
 Maximum Displacement     0.154812     0.001800     NO 
 RMS     Displacement     0.055623     0.001200     NO 
 Predicted change in Energy=-2.072649D-02
 GradGradGradGradGradGradGradGradGradGradGradGradGradGradGradGradGradGrad

 Leave Link  103 at Wed Mar 23 16:43:23 2016, MaxMem=    33554432 cpu:         0.0
 (Enter /opt/g09/g09/l9999.exe)
 1\1\GINC-LINUX-CBNE\Freq\RAM1-Full\STO-3G\C4H4S1\DUSTIN\23-Mar-2016\0\
 \#P AM1(Input,Print) CIS(Singlets,NStates=10) pop(full) freq\\best1\\0
 ,1\C,0.927581,-0.763957,0.013303\C,-0.401806,-1.239261,0.015705\C,-0.3
 55573,1.293183,0.058104\C,0.857342,0.676324,0.012843\H,1.783538,1.3243
 63,-0.106426\H,-0.569816,2.374563,0.225998\H,-0.579907,-2.293413,0.127
 337\H,1.774584,-1.277269,-0.035359\S,-1.625102,0.066773,-0.110984\\Ver
 sion=ES64L-G09RevD.01\State=1-A\HF=0.3015081\RMSD=3.182e-09\RMSF=3.799
 e-02\ZeroPoint=0.063674\Thermal=0.0678485\Dipole=1.0943175,0.0072385,0
 .1437967\DipoleDeriv=-0.29916,-0.5384476,0.0080242,-0.4462485,-0.43118
 82,0.0019312,-0.031994,0.0534035,-0.2270579,0.7030164,1.180435,0.01310
 52,-0.2501985,0.0972846,-0.0982278,0.0862362,0.0165062,0.219882,1.2250
 9,-1.0416934,0.1095614,0.189613,0.0519544,0.0722373,0.0694723,0.007892
 8,0.1839532,-0.3682137,0.5436967,-0.0673945,0.7980391,-0.4661618,0.025
 133,-0.0091031,-0.0781616,-0.1525424,-0.0571454,-0.0329848,0.0029393,-
 0.0164608,-0.0027618,0.0032751,0.0212704,-0.0304419,0.0966683,-0.03247
 7,-0.089676,-0.0119682,-0.0003319,0.0550847,-0.0087866,-0.01625,0.0113
 286,0.1021494,-0.0733149,0.0895634,-0.0071757,0.0013095,-0.0460238,0.0
 14361,-0.022956,0.0031223,0.0743443,0.0495079,-0.0181687,0.003713,-0.0
 462661,0.0516252,0.0005171,-0.0024645,0.0233708,0.155089,-1.1473031,-0
 .0927257,-0.050803,-0.2294561,0.6901916,-0.0104409,-0.0942141,-0.00702
 04,-0.4524749\Polar=66.6477375,-1.2617968,71.3830356,0.7275734,0.73118
 51,13.7926559\PG=C01 [X(C4H4S1)]\NImag=2\\0.90160681,-0.16553701,0.659
 52810,-0.02009275,0.00864553,0.11690163,-0.36162569,-0.02281389,-0.004
 47739,0.42891668,-0.13806901,-0.10877239,0.00076256,0.20565739,0.56568
 669,0.00266889,0.00189883,-0.05985554,-0.00790675,-0.03290978,0.113274
 19,-0.05567188,0.03228414,0.00611284,0.10049902,-0.00959769,-0.0011010
 2,0.53191689,0.06107295,-0.04483270,-0.00101455,0.01584130,-0.07011106
 ,0.00225849,-0.25267080,0.54379385,0.00598130,0.00264439,0.00082653,-0
 .00291804,-0.00464631,0.00595676,-0.02408343,0.04630640,0.11748019,-0.
 05709146,-0.01114256,-0.00332987,-0.04063001,-0.06526828,0.00262454,-0
 .42247115,0.22997430,0.02063918,0.79380553,0.02923775,-0.35566061,0.00
 304275,-0.04507183,-0.05342866,-0.00091501,0.12678985,-0.15090592,-0.0
 1056550,-0.07443595,0.69143266,-0.00400136,0.00021182,-0.07685653,0.00
 504036,-0.00022249,0.00468851,0.01092556,-0.01002253,-0.04577870,-0.02
 872286,0.00125848,0.14440499,0.00404189,-0.00241319,0.00056271,-0.0031
 1831,-0.00362893,0.00094337,-0.04215658,-0.01502351,0.00255147,-0.1798
 9279,-0.08793320,0.01569175,0.22089572,-0.02212564,-0.02126554,0.00136
 973,-0.00455914,-0.00412362,0.00023553,0.00836528,0.00711714,-0.000269
 96,-0.08625664,-0.11408015,0.00989442,0.10321367,0.13478006,-0.0022882
 2,-0.00185225,0.00694008,0.00326970,0.00244359,0.00498689,0.00264636,0
 .00373168,0.00935527,0.01618533,0.00955928,-0.05818456,-0.01960480,-0.
 01178863,0.03845602,-0.00206335,-0.00005774,0.00009971,0.00008455,-0.0
 0093980,-0.00001151,-0.05298017,0.03390327,0.00642244,-0.01057453,0.03
 257991,0.00368853,0.00080790,0.00017154,-0.00029734,0.06639506,0.00227
 382,0.00018874,-0.00116938,-0.00151008,0.00136916,-0.00040139,0.048991
 92,-0.27011811,-0.03220024,0.00547166,-0.01560907,-0.00309955,0.000228
 84,0.00044834,0.00020941,-0.05423995,0.29731707,0.00126386,-0.00030605
 ,0.00586211,0.00092034,-0.00142249,0.00132497,0.00694796,-0.03529887,-
 0.05769510,-0.00118430,-0.00245504,0.00839269,-0.00009615,-0.00000295,
 -0.00160892,-0.00783933,0.03865293,0.03961030,-0.01441410,-0.03587440,
 0.00252363,-0.04452448,-0.04114348,0.00523269,-0.00027509,0.00070663,0
 .00008621,-0.00350900,-0.00112521,0.00000006,0.00044979,-0.00067027,-0
 .00021871,0.00007598,0.00011367,0.00021299,0.06088222,-0.00720501,-0.0
 1564808,0.00250159,-0.05825284,-0.33703874,0.02985841,0.00209909,0.000
 40189,0.00017598,-0.00290745,0.00064000,0.00085763,-0.00027321,-0.0006
 9336,-0.00008776,-0.00013269,-0.00026552,-0.00028187,0.06798525,0.3606
 2596,-0.00090292,0.00181499,0.01211189,0.00584090,0.03273050,-0.044486
 99,-0.00030187,0.00106972,0.00119729,0.00081605,-0.00051099,0.00563092
 ,0.00008782,0.00005511,-0.00200476,0.00019495,0.00023468,-0.00113818,-
 0.00634508,-0.03421625,0.02311514,-0.37539574,0.21799797,0.02063815,-0
 .03761405,0.01539629,0.00025024,-0.00487309,0.00337858,0.00076050,0.00
 412180,0.00346017,0.00004968,0.00071595,0.00010284,-0.00044550,0.00050
 893,0.00000115,0.00017460,0.00071585,-0.00000705,-0.00001621,0.4096394
 0,0.21685845,-0.14548066,-0.01178576,-0.01354162,0.01100773,0.00001783
 ,0.00391679,-0.00300060,-0.00006374,0.02811964,-0.02601749,-0.00035571
 ,0.00012249,0.00009045,-0.00004687,0.00064741,-0.00059443,-0.00013504,
 -0.00003105,0.00049672,-0.00018483,-0.23561200,0.16877531,0.02160859,-
 0.01029952,-0.01157850,0.00082660,-0.00178245,0.00731546,0.00032750,-0
 .00104044,0.00497188,-0.00004519,-0.00150048,0.00724423,-0.00029223,-0
 .00002752,-0.00115015,-0.00018543,0.00032479,-0.00160435,-0.00013176,-
 0.00030284,-0.00142234,-0.02146751,0.01273577,-0.00754545,-0.03938693,
 -0.01244326,-0.00203686,-0.04198719,0.03759350,-0.00270045,-0.05398793
 ,-0.07718270,-0.00943999,-0.08375823,0.01649800,-0.00267142,-0.0017435
 5,0.00175827,0.00075310,-0.00225437,-0.00133088,-0.00039994,0.00059870
 ,-0.00130600,0.00062629,0.00218092,-0.00048018,-0.00064060,0.22033846,
 0.02349401,0.03194350,-0.00235250,-0.07574970,-0.00458912,-0.00004282,
 0.03982170,-0.01234411,-0.00138089,-0.02355484,0.02362923,0.00147786,0
 .00570713,-0.00227352,-0.00216855,-0.01193193,-0.01273619,0.00124936,0
 .01003875,-0.00851886,-0.00099299,-0.00471808,-0.00527713,0.00189273,0
 .03689336,-0.00983416,-0.00423774,-0.00275790,0.00564851,-0.00059523,0
 .00504713,-0.03320476,-0.00147334,-0.00599022,-0.03631409,-0.00698306,
 0.00208673,0.01045903,0.00015603,0.00053422,0.00320995,-0.00207214,-0.
 00255105,0.00685618,-0.00136017,0.00149497,0.00699693,0.00005613,-0.00
 018168,0.00376910,0.01650960,0.00231779,0.03257962\\0.07338206,-0.1062
 7446,0.00296997,0.00191172,0.02480102,-0.00155353,0.06225600,-0.035205
 13,-0.00565815,-0.09222947,0.02860182,0.01035451,0.02329404,0.02412797
 ,-0.00909102,-0.00921625,0.02934883,0.00771591,0.00766428,-0.00236404,
 0.00250521,-0.05704178,0.03740682,-0.00029211,-0.01002060,-0.00044281,
 -0.00695079\\\@


 ALMOST ALL THE CHEMICAL PROCESSES WHICH OCCUR IN NATURE,
 WHETHER IN ANIMAL OR VEGETABLE ORGANISMS,
 OR IN THE NON-LIVING SURFACE OF THE EARTH ... 
 TAKE PLACE BETWEEN SUBSTANCES IN SOLUTION

                                    -- W. OSTWALD, 1890
 Job cpu time:       0 days  0 hours  0 minutes  0.5 seconds.
 File lengths (MBytes):  RWF=      6 Int=      0 D2E=      0 Chk=      2 Scr=      1
 Normal termination of Gaussian 09 at Wed Mar 23 16:43:23 2016.
