 Entering Gaussian System, Link 0=g09
 Input=Thiophene.com
 Output=ThiopheneAM1Excited.log
 Initial command:
 /opt/g09/g09/l1.exe "/opt/g09/scratch/Gau-27366.inp" -scrdir="/opt/g09/scratch/"
 Entering Link 1 = /opt/g09/g09/l1.exe PID=     27367.
  
 Copyright (c) 1988,1990,1992,1993,1995,1998,2003,2009,2013,
            Gaussian, Inc.  All Rights Reserved.
  
 This is part of the Gaussian(R) 09 program.  It is based on
 the Gaussian(R) 03 system (copyright 2003, Gaussian, Inc.),
 the Gaussian(R) 98 system (copyright 1998, Gaussian, Inc.),
 the Gaussian(R) 94 system (copyright 1995, Gaussian, Inc.),
 the Gaussian 92(TM) system (copyright 1992, Gaussian, Inc.),
 the Gaussian 90(TM) system (copyright 1990, Gaussian, Inc.),
 the Gaussian 88(TM) system (copyright 1988, Gaussian, Inc.),
 the Gaussian 86(TM) system (copyright 1986, Carnegie Mellon
 University), and the Gaussian 82(TM) system (copyright 1983,
 Carnegie Mellon University). Gaussian is a federally registered
 trademark of Gaussian, Inc.
  
 This software contains proprietary and confidential information,
 including trade secrets, belonging to Gaussian, Inc.
  
 This software is provided under written license and may be
 used, copied, transmitted, or stored only in accord with that
 written license.
  
 The following legend is applicable only to US Government
 contracts under FAR:
  
                    RESTRICTED RIGHTS LEGEND
  
 Use, reproduction and disclosure by the US Government is
 subject to restrictions as set forth in subparagraphs (a)
 and (c) of the Commercial Computer Software - Restricted
 Rights clause in FAR 52.227-19.
  
 Gaussian, Inc.
 340 Quinnipiac St., Bldg. 40, Wallingford CT 06492
  
  
 ---------------------------------------------------------------
 Warning -- This program may not be used in any manner that
 competes with the business of Gaussian, Inc. or will provide
 assistance to any competitor of Gaussian, Inc.  The licensee
 of this program is prohibited from giving any competitor of
 Gaussian, Inc. access to this program.  By using this program,
 the user acknowledges that Gaussian, Inc. is engaged in the
 business of creating and licensing software in the field of
 computational chemistry and represents and warrants to the
 licensee that it is not a competitor of Gaussian, Inc. and that
 it will not use this program in any manner prohibited above.
 ---------------------------------------------------------------
  

 Cite this work as:
 Gaussian 09, Revision D.01,
 M. J. Frisch, G. W. Trucks, H. B. Schlegel, G. E. Scuseria, 
 M. A. Robb, J. R. Cheeseman, G. Scalmani, V. Barone, B. Mennucci, 
 G. A. Petersson, H. Nakatsuji, M. Caricato, X. Li, H. P. Hratchian, 
 A. F. Izmaylov, J. Bloino, G. Zheng, J. L. Sonnenberg, M. Hada, 
 M. Ehara, K. Toyota, R. Fukuda, J. Hasegawa, M. Ishida, T. Nakajima, 
 Y. Honda, O. Kitao, H. Nakai, T. Vreven, J. A. Montgomery, Jr., 
 J. E. Peralta, F. Ogliaro, M. Bearpark, J. J. Heyd, E. Brothers, 
 K. N. Kudin, V. N. Staroverov, T. Keith, R. Kobayashi, J. Normand, 
 K. Raghavachari, A. Rendell, J. C. Burant, S. S. Iyengar, J. Tomasi, 
 M. Cossi, N. Rega, J. M. Millam, M. Klene, J. E. Knox, J. B. Cross, 
 V. Bakken, C. Adamo, J. Jaramillo, R. Gomperts, R. E. Stratmann, 
 O. Yazyev, A. J. Austin, R. Cammi, C. Pomelli, J. W. Ochterski, 
 R. L. Martin, K. Morokuma, V. G. Zakrzewski, G. A. Voth, 
 P. Salvador, J. J. Dannenberg, S. Dapprich, A. D. Daniels, 
 O. Farkas, J. B. Foresman, J. V. Ortiz, J. Cioslowski, 
 and D. J. Fox, Gaussian, Inc., Wallingford CT, 2013.
 
 ******************************************
 Gaussian 09:  ES64L-G09RevD.01 24-Apr-2013
                24-Mar-2016 
 ******************************************
 %Chk=freq
 ----------
 #P AM1 opt
 ----------
 1/14=-1,18=20,19=15,26=1,38=1/1,3;
 2/9=110,12=2,17=6,18=5,40=1/2;
 3/5=2,16=1,25=1,41=700000,71=1/1,2,3;
 4/35=1/1;
 5/5=2,35=1,38=5/2;
 6/7=2,8=2,9=2,10=2,28=1/1;
 7//1,2,3,16;
 1/14=-1,18=20,19=15,26=1/3(2);
 2/9=110/2;
 99//99;
 2/9=110/2;
 3/5=2,16=1,25=1,41=700000,71=1,135=20/1,2,3;
 4/5=5,16=3,35=1/1;
 5/5=2,35=1,38=5/2;
 7//1,2,3,16;
 1/14=-1,18=20,19=15,26=1/3(-5);
 2/9=110/2;
 6/7=2,8=2,9=2,10=2,19=2,28=1/1;
 99/9=1/99;
 Leave Link    1 at Thu Mar 24 14:30:50 2016, MaxMem=           0 cpu:         0.0
 (Enter /opt/g09/g09/l101.exe)
 ---------
 Thiophene
 ---------
 Symbolic Z-matrix:
 Charge =  0 Multiplicity = 1
 C                     0.88921  -0.68321  -0.02963 
 C                    -0.40237  -1.23805   0.01377 
 C                    -0.36698   1.28288   0.05755 
 C                     0.8856    0.73907  -0.00414 
 H                     1.77933   1.32721  -0.01965 
 H                    -0.56915   2.32326   0.20464 
 H                    -0.62025  -2.27993   0.12286 
 H                     1.78293  -1.27043  -0.06601 
 S                    -1.60845   0.0387   -0.1306 
 
 NAtoms=      9 NQM=        9 NQMF=       0 NMMI=      0 NMMIF=      0
                NMic=       0 NMicF=      0.
                    Isotopes and Nuclear Properties:
 (Nuclear quadrupole moments (NQMom) in fm**2, nuclear magnetic moments (NMagM)
  in nuclear magnetons)

  Atom         1           2           3           4           5           6           7           8           9
 IAtWgt=          12          12          12          12           1           1           1           1          32
 AtmWgt=  12.0000000  12.0000000  12.0000000  12.0000000   1.0078250   1.0078250   1.0078250   1.0078250  31.9720718
 NucSpn=           0           0           0           0           1           1           1           1           0
 AtZEff=   0.0000000   0.0000000   0.0000000   0.0000000   0.0000000   0.0000000   0.0000000   0.0000000   0.0000000
 NQMom=    0.0000000   0.0000000   0.0000000   0.0000000   0.0000000   0.0000000   0.0000000   0.0000000   0.0000000
 NMagM=    0.0000000   0.0000000   0.0000000   0.0000000   2.7928460   2.7928460   2.7928460   2.7928460   0.0000000
 AtZNuc=   6.0000000   6.0000000   6.0000000   6.0000000   1.0000000   1.0000000   1.0000000   1.0000000  16.0000000
 Leave Link  101 at Thu Mar 24 14:30:51 2016, MaxMem=    33554432 cpu:         0.0
 (Enter /opt/g09/g09/l103.exe)

 GradGradGradGradGradGradGradGradGradGradGradGradGradGradGradGradGradGrad
 Berny optimization.
 Initialization pass.
                           ----------------------------
                           !    Initial Parameters    !
                           ! (Angstroms and Degrees)  !
 --------------------------                            --------------------------
 ! Name  Definition              Value          Derivative Info.                !
 --------------------------------------------------------------------------------
 ! R1    R(1,2)                  1.4064         estimate D2E/DX2                !
 ! R2    R(1,4)                  1.4225         estimate D2E/DX2                !
 ! R3    R(1,8)                  1.07           estimate D2E/DX2                !
 ! R4    R(2,7)                  1.07           estimate D2E/DX2                !
 ! R5    R(2,9)                  1.7623         estimate D2E/DX2                !
 ! R6    R(3,4)                  1.3669         estimate D2E/DX2                !
 ! R7    R(3,6)                  1.07           estimate D2E/DX2                !
 ! R8    R(3,9)                  1.7677         estimate D2E/DX2                !
 ! R9    R(4,5)                  1.07           estimate D2E/DX2                !
 ! A1    A(2,1,4)              113.0524         estimate D2E/DX2                !
 ! A2    A(2,1,8)              123.4778         estimate D2E/DX2                !
 ! A3    A(4,1,8)              123.4659         estimate D2E/DX2                !
 ! A4    A(1,2,7)              125.0503         estimate D2E/DX2                !
 ! A5    A(1,2,9)              109.8875         estimate D2E/DX2                !
 ! A6    A(7,2,9)              125.0616         estimate D2E/DX2                !
 ! A7    A(4,3,6)              124.4826         estimate D2E/DX2                !
 ! A8    A(4,3,9)              111.0237         estimate D2E/DX2                !
 ! A9    A(6,3,9)              124.4932         estimate D2E/DX2                !
 ! A10   A(1,4,3)              113.6341         estimate D2E/DX2                !
 ! A11   A(1,4,5)              123.175          estimate D2E/DX2                !
 ! A12   A(3,4,5)              123.1869         estimate D2E/DX2                !
 ! A13   A(2,9,3)               91.1778         estimate D2E/DX2                !
 ! D1    D(4,1,2,7)           -172.2225         estimate D2E/DX2                !
 ! D2    D(4,1,2,9)              7.5123         estimate D2E/DX2                !
 ! D3    D(8,1,2,7)              7.0752         estimate D2E/DX2                !
 ! D4    D(8,1,2,9)           -173.19           estimate D2E/DX2                !
 ! D5    D(2,1,4,3)              0.0151         estimate D2E/DX2                !
 ! D6    D(2,1,4,5)            179.3043         estimate D2E/DX2                !
 ! D7    D(8,1,4,3)           -179.2827         estimate D2E/DX2                !
 ! D8    D(8,1,4,5)              0.0065         estimate D2E/DX2                !
 ! D9    D(1,2,9,3)             -9.8223         estimate D2E/DX2                !
 ! D10   D(7,2,9,3)            169.9125         estimate D2E/DX2                !
 ! D11   D(6,3,4,1)            172.1782         estimate D2E/DX2                !
 ! D12   D(6,3,4,5)             -7.1109         estimate D2E/DX2                !
 ! D13   D(9,3,4,1)             -7.5681         estimate D2E/DX2                !
 ! D14   D(9,3,4,5)            173.1428         estimate D2E/DX2                !
 ! D15   D(4,3,9,2)             10.0041         estimate D2E/DX2                !
 ! D16   D(6,3,9,2)           -169.7422         estimate D2E/DX2                !
 --------------------------------------------------------------------------------
 Trust Radius=3.00D-01 FncErr=1.00D-07 GrdErr=1.00D-07
 Number of steps in this run=     48 maximum allowed number of steps=    100.
 GradGradGradGradGradGradGradGradGradGradGradGradGradGradGradGradGradGrad

 Leave Link  103 at Thu Mar 24 14:30:51 2016, MaxMem=    33554432 cpu:         0.0
 (Enter /opt/g09/g09/l202.exe)
                          Input orientation:                          
 ---------------------------------------------------------------------
 Center     Atomic      Atomic             Coordinates (Angstroms)
 Number     Number       Type             X           Y           Z
 ---------------------------------------------------------------------
      1          6           0        0.889206   -0.683208   -0.029631
      2          6           0       -0.402374   -1.238046    0.013771
      3          6           0       -0.366984    1.282879    0.057553
      4          6           0        0.885605    0.739071   -0.004143
      5          1           0        1.779334    1.327209   -0.019652
      6          1           0       -0.569149    2.323262    0.204638
      7          1           0       -0.620248   -2.279934    0.122857
      8          1           0        1.782931   -1.270432   -0.066014
      9         16           0       -1.608452    0.038703   -0.130598
 ---------------------------------------------------------------------
                    Distance matrix (angstroms):
                    1          2          3          4          5
     1  C    0.000000
     2  C    1.406380   0.000000
     3  C    2.334762   2.521554   0.000000
     4  C    1.422512   2.359704   1.366936   0.000000
     5  H    2.198683   3.367715   2.148164   1.070000   0.000000
     6  H    3.349708   3.570316   1.070000   2.160916   2.560820
     7  H    2.202552   1.070000   3.572401   3.376109   4.334719
     8  H    1.070000   2.187000   3.340180   2.201618   2.598058
     9  S    2.601855   1.762259   1.767659   2.593613   3.626245
                    6          7          8          9
     6  H    0.000000
     7  H    4.604206   0.000000
     8  H    4.303506   2.613434   0.000000
     9  S    2.532142   2.533154   3.635861   0.000000
 Stoichiometry    C4H4S
 Framework group  C1[X(C4H4S)]
 Deg. of freedom    21
 Full point group                 C1      NOp   1
 Largest Abelian subgroup         C1      NOp   1
 Largest concise Abelian subgroup C1      NOp   1
                         Standard orientation:                         
 ---------------------------------------------------------------------
 Center     Atomic      Atomic             Coordinates (Angstroms)
 Number     Number       Type             X           Y           Z
 ---------------------------------------------------------------------
      1          6           0       -1.272693    0.731039   -0.030224
      2          6           0        0.023552    1.266881    0.072385
      3          6           0       -0.047317   -1.253677    0.072108
      4          6           0       -1.289160   -0.691377   -0.028685
      5          1           0       -2.189420   -1.266561   -0.088631
      6          1           0        0.135012   -2.299069    0.209263
      7          1           0        0.250979    2.303676    0.207413
      8          1           0       -2.156376    1.331285   -0.091139
      9         16           0        1.217095   -0.024158   -0.046901
 ---------------------------------------------------------------------
 Rotational constants (GHZ):      7.8131700      5.2363458      3.1475661
 Leave Link  202 at Thu Mar 24 14:30:51 2016, MaxMem=    33554432 cpu:         0.0
 (Enter /opt/g09/g09/l301.exe)
 Standard basis: VSTO-6G (5D, 7F)
 Ernie: Thresh=  0.10000D-02 Tol=  0.10000D-05 Strict=F.
  NNHCO=     0 NNPyr=     0 NCTC=     0               EPep=         0.000000000
    EC=        63.072013793  ECS=         1.605936949   EG=         0.147685721
   EHC=         0.000000000  EAt=       -26.480868474  AtH=         1.527256635
 EPDDG=         0.000000000  ECC=        64.825636462 EAtT=        28.008125109
 There are    24 symmetry adapted cartesian basis functions of A   symmetry.
 There are    24 symmetry adapted basis functions of A   symmetry.
    24 basis functions,   144 primitive gaussians,    24 cartesian basis functions
    13 alpha electrons       13 beta electrons
       nuclear repulsion energy        92.8337615716 Hartrees.
 IExCor=    0 DFT=F Ex=HF Corr=None ExCW=0 ScaHFX=  1.000000
 ScaDFX=  1.000000  1.000000  1.000000  1.000000 ScalE2=  1.000000  1.000000
 IRadAn=      0 IRanWt=     -1 IRanGd=            0 ICorTp=0 IEmpDi=  4
 Integral buffers will be    131072 words long.
 Regular integral format.
 Two-electron integral symmetry is turned off.
 Leave Link  301 at Thu Mar 24 14:30:51 2016, MaxMem=    33554432 cpu:         0.0
 (Enter /opt/g09/g09/l302.exe)
 Do NDO integrals.
 NPDir=0 NMtPBC=     1 NCelOv=     1 NCel=       1 NClECP=     1 NCelD=      1
         NCelK=      1 NCelE2=     1 NClLst=     1 CellRange=     0.0.
 One-electron integrals computed using PRISM.
 NBasis=    24 RedAO= F EigKep=  0.00D+00  NBF=    24
 NBsUse=    24 1.00D-04 EigRej=  0.00D+00 NBFU=    24
 Leave Link  302 at Thu Mar 24 14:30:51 2016, MaxMem=    33554432 cpu:         0.0
 (Enter /opt/g09/g09/l303.exe)
 DipDrv:  MaxL=1.
 Leave Link  303 at Thu Mar 24 14:30:51 2016, MaxMem=    33554432 cpu:         0.0
 (Enter /opt/g09/g09/l401.exe)
 Simple Huckel Guess.
 JPrj=0 DoOrth=F DoCkMO=F.
 Leave Link  401 at Thu Mar 24 14:30:51 2016, MaxMem=    33554432 cpu:         0.0
 (Enter /opt/g09/g09/l502.exe)
 Closed shell SCF:
 Using DIIS extrapolation, IDIIS=  1040.
 Overlap will be assumed to be unity.
 Two-electron integral symmetry not used.
 Keep J ints in memory in canonical form, NReq=888082.
 IVT=       79475 IEndB=       79475 NGot=    33554432 MDV=    33473473
 LenX=    33473473 LenY=    33472456
 Requested convergence on RMS density matrix=1.00D-08 within 128 cycles.
 Requested convergence on MAX density matrix=1.00D-06.
 Requested convergence on             energy=1.00D-06.
 No special actions if energy rises.
 FoFCou: FMM=F IPFlag=           0 FMFlag=           0 FMFlg1=           0
         NFxFlg=           0 DoJE=F BraDBF=F KetDBF=F FulRan=T
         wScrn=  0.000000 ICntrl=     600 IOpCl=  2 I1Cent=           0 NGrid=           0
         NMat0=    1 NMatS0=     54 NMatT0=    0 NMatD0=    1 NMtDS0=    0 NMtDT0=    0
 Symmetry not used in FoFCou.

 Cycle   1  Pass 1  IDiag  1:
 E= 0.245090617716187    
 DIIS: error= 3.92D-02 at cycle   1 NSaved=   1.
 NSaved= 1 IEnMin= 1 EnMin= 0.245090617716187     IErMin= 1 ErrMin= 3.92D-02
 ErrMax= 3.92D-02  0.00D+00 EMaxC= 1.00D-01 BMatC= 6.02D-02 BMatP= 6.02D-02
 IDIUse=3 WtCom= 6.08D-01 WtEn= 3.92D-01
 Coeff-Com:  0.100D+01
 Coeff-En:   0.100D+01
 Coeff:      0.100D+01
 GapD=    2.000 DampG=2.000 DampE=0.500 DampFc=1.0000 IDamp=-1.
 RMSDP=1.72D-02 MaxDP=1.28D-01              OVMax= 0.00D+00

 Cycle   2  Pass 1  IDiag  1:
 E= 0.743728382122839E-01 Delta-E=       -0.170717779504 Rises=F Damp=F
 DIIS: error= 1.10D-02 at cycle   2 NSaved=   2.
 NSaved= 2 IEnMin= 2 EnMin= 0.743728382122839E-01 IErMin= 2 ErrMin= 1.10D-02
 ErrMax= 1.10D-02  0.00D+00 EMaxC= 1.00D-01 BMatC= 4.72D-03 BMatP= 6.02D-02
 IDIUse=3 WtCom= 8.90D-01 WtEn= 1.10D-01
 Coeff-Com: -0.354D+00 0.135D+01
 Coeff-En:   0.000D+00 0.100D+01
 Coeff:     -0.316D+00 0.132D+01
 RMSDP=6.96D-03 MaxDP=6.64D-02 DE=-1.71D-01 OVMax= 0.00D+00

 Cycle   3  Pass 1  IDiag  3:
 E= 0.576582830373980E-01 Delta-E=       -0.016714555175 Rises=F Damp=F
 DIIS: error= 1.45D-03 at cycle   3 NSaved=   3.
 NSaved= 3 IEnMin= 3 EnMin= 0.576582830373980E-01 IErMin= 3 ErrMin= 1.45D-03
 ErrMax= 1.45D-03  0.00D+00 EMaxC= 1.00D-01 BMatC= 9.03D-05 BMatP= 4.72D-03
 IDIUse=3 WtCom= 9.85D-01 WtEn= 1.45D-02
 Coeff-Com:  0.117D+00-0.500D+00 0.138D+01
 Coeff-En:   0.000D+00 0.000D+00 0.100D+01
 Coeff:      0.115D+00-0.493D+00 0.138D+01
 Gap=     0.340 Goal=   None    Shift=    0.000
 RMSDP=1.68D-03 MaxDP=1.63D-02 DE=-1.67D-02 OVMax= 1.83D-02

 Cycle   4  Pass 1  IDiag  3:
 E= 0.569945674936605E-01 Delta-E=       -0.000663715544 Rises=F Damp=F
 DIIS: error= 4.92D-04 at cycle   4 NSaved=   4.
 NSaved= 4 IEnMin= 4 EnMin= 0.569945674936605E-01 IErMin= 4 ErrMin= 4.92D-04
 ErrMax= 4.92D-04  0.00D+00 EMaxC= 1.00D-01 BMatC= 8.17D-06 BMatP= 9.03D-05
 IDIUse=3 WtCom= 9.95D-01 WtEn= 4.92D-03
 Coeff-Com: -0.363D-02 0.194D-01-0.308D+00 0.129D+01
 Coeff-En:   0.000D+00 0.000D+00 0.000D+00 0.100D+01
 Coeff:     -0.361D-02 0.193D-01-0.307D+00 0.129D+01
 Gap=     0.340 Goal=   None    Shift=    0.000
 RMSDP=6.39D-04 MaxDP=5.02D-03 DE=-6.64D-04 OVMax= 7.31D-03

 Cycle   5  Pass 1  IDiag  3:
 E= 0.569134415555226E-01 Delta-E=       -0.000081125938 Rises=F Damp=F
 DIIS: error= 2.82D-04 at cycle   5 NSaved=   5.
 NSaved= 5 IEnMin= 5 EnMin= 0.569134415555226E-01 IErMin= 5 ErrMin= 2.82D-04
 ErrMax= 2.82D-04  0.00D+00 EMaxC= 1.00D-01 BMatC= 1.33D-06 BMatP= 8.17D-06
 IDIUse=3 WtCom= 9.97D-01 WtEn= 2.82D-03
 Coeff-Com: -0.550D-02 0.222D-01 0.117D+00-0.991D+00 0.186D+01
 Coeff-En:   0.000D+00 0.000D+00 0.000D+00 0.000D+00 0.100D+01
 Coeff:     -0.548D-02 0.222D-01 0.117D+00-0.988D+00 0.186D+01
 Gap=     0.340 Goal=   None    Shift=    0.000
 RMSDP=3.72D-04 MaxDP=3.04D-03 DE=-8.11D-05 OVMax= 4.57D-03

 Cycle   6  Pass 1  IDiag  3:
 E= 0.568969838567170E-01 Delta-E=       -0.000016457699 Rises=F Damp=F
 DIIS: error= 6.91D-05 at cycle   6 NSaved=   6.
 NSaved= 6 IEnMin= 6 EnMin= 0.568969838567170E-01 IErMin= 6 ErrMin= 6.91D-05
 ErrMax= 6.91D-05  0.00D+00 EMaxC= 1.00D-01 BMatC= 6.78D-08 BMatP= 1.33D-06
 IDIUse=1 WtCom= 1.00D+00 WtEn= 0.00D+00
 Coeff-Com:  0.182D-02-0.781D-02-0.491D-01 0.433D+00-0.974D+00 0.160D+01
 Coeff:      0.182D-02-0.781D-02-0.491D-01 0.433D+00-0.974D+00 0.160D+01
 Gap=     0.340 Goal=   None    Shift=    0.000
 RMSDP=8.10D-05 MaxDP=7.42D-04 DE=-1.65D-05 OVMax= 9.27D-04

 Cycle   7  Pass 1  IDiag  3:
 E= 0.568962772666595E-01 Delta-E=       -0.000000706590 Rises=F Damp=F
 DIIS: error= 8.07D-06 at cycle   7 NSaved=   7.
 NSaved= 7 IEnMin= 7 EnMin= 0.568962772666595E-01 IErMin= 7 ErrMin= 8.07D-06
 ErrMax= 8.07D-06  0.00D+00 EMaxC= 1.00D-01 BMatC= 1.42D-09 BMatP= 6.78D-08
 IDIUse=1 WtCom= 1.00D+00 WtEn= 0.00D+00
 Coeff-Com: -0.394D-03 0.163D-02 0.119D-01-0.101D+00 0.227D+00-0.427D+00
 Coeff-Com:  0.129D+01
 Coeff:     -0.394D-03 0.163D-02 0.119D-01-0.101D+00 0.227D+00-0.427D+00
 Coeff:      0.129D+01
 Gap=     0.340 Goal=   None    Shift=    0.000
 RMSDP=7.24D-06 MaxDP=6.61D-05 DE=-7.07D-07 OVMax= 6.48D-05

 Cycle   8  Pass 1  IDiag  3:
 E= 0.568962672537339E-01 Delta-E=       -0.000000010013 Rises=F Damp=F
 DIIS: error= 1.81D-06 at cycle   8 NSaved=   8.
 NSaved= 8 IEnMin= 8 EnMin= 0.568962672537339E-01 IErMin= 8 ErrMin= 1.81D-06
 ErrMax= 1.81D-06  0.00D+00 EMaxC= 1.00D-01 BMatC= 1.24D-10 BMatP= 1.42D-09
 IDIUse=1 WtCom= 1.00D+00 WtEn= 0.00D+00
 Coeff-Com:  0.835D-04-0.321D-03-0.290D-02 0.231D-01-0.512D-01 0.105D+00
 Coeff-Com: -0.558D+00 0.148D+01
 Coeff:      0.835D-04-0.321D-03-0.290D-02 0.231D-01-0.512D-01 0.105D+00
 Coeff:     -0.558D+00 0.148D+01
 Gap=     0.340 Goal=   None    Shift=    0.000
 RMSDP=2.22D-06 MaxDP=1.56D-05 DE=-1.00D-08 OVMax= 1.66D-05

 Cycle   9  Pass 1  IDiag  3:
 E= 0.568962663111705E-01 Delta-E=       -0.000000000943 Rises=F Damp=F
 DIIS: error= 2.77D-07 at cycle   9 NSaved=   9.
 NSaved= 9 IEnMin= 9 EnMin= 0.568962663111705E-01 IErMin= 9 ErrMin= 2.77D-07
 ErrMax= 2.77D-07  0.00D+00 EMaxC= 1.00D-01 BMatC= 7.31D-12 BMatP= 1.24D-10
 IDIUse=1 WtCom= 1.00D+00 WtEn= 0.00D+00
 Coeff-Com: -0.927D-05 0.218D-04 0.491D-03-0.332D-02 0.704D-02-0.178D-01
 Coeff-Com:  0.165D+00-0.641D+00 0.149D+01
 Coeff:     -0.927D-05 0.218D-04 0.491D-03-0.332D-02 0.704D-02-0.178D-01
 Coeff:      0.165D+00-0.641D+00 0.149D+01
 Gap=     0.340 Goal=   None    Shift=    0.000
 RMSDP=5.94D-07 MaxDP=3.11D-06 DE=-9.43D-10 OVMax= 6.10D-06

 Cycle  10  Pass 1  IDiag  3:
 E= 0.568962662501207E-01 Delta-E=       -0.000000000061 Rises=F Damp=F
 DIIS: error= 7.53D-08 at cycle  10 NSaved=  10.
 NSaved=10 IEnMin=10 EnMin= 0.568962662501207E-01 IErMin=10 ErrMin= 7.53D-08
 ErrMax= 7.53D-08  0.00D+00 EMaxC= 1.00D-01 BMatC= 4.32D-13 BMatP= 7.31D-12
 IDIUse=1 WtCom= 1.00D+00 WtEn= 0.00D+00
 Coeff-Com: -0.457D-05 0.243D-04-0.793D-05-0.342D-03 0.948D-03-0.210D-03
 Coeff-Com: -0.333D-01 0.176D+00-0.630D+00 0.149D+01
 Coeff:     -0.457D-05 0.243D-04-0.793D-05-0.342D-03 0.948D-03-0.210D-03
 Coeff:     -0.333D-01 0.176D+00-0.630D+00 0.149D+01
 Gap=     0.340 Goal=   None    Shift=    0.000
 RMSDP=1.55D-07 MaxDP=8.92D-07 DE=-6.10D-11 OVMax= 1.96D-06

 Cycle  11  Pass 1  IDiag  3:
 E= 0.568962662462411E-01 Delta-E=       -0.000000000004 Rises=F Damp=F
 DIIS: error= 2.31D-08 at cycle  11 NSaved=  11.
 NSaved=11 IEnMin=11 EnMin= 0.568962662462411E-01 IErMin=11 ErrMin= 2.31D-08
 ErrMax= 2.31D-08  0.00D+00 EMaxC= 1.00D-01 BMatC= 2.58D-14 BMatP= 4.32D-13
 IDIUse=1 WtCom= 1.00D+00 WtEn= 0.00D+00
 Coeff-Com:  0.214D-05-0.996D-05-0.245D-04 0.306D-03-0.725D-03 0.986D-03
 Coeff-Com:  0.403D-02-0.345D-01 0.171D+00-0.587D+00 0.145D+01
 Coeff:      0.214D-05-0.996D-05-0.245D-04 0.306D-03-0.725D-03 0.986D-03
 Coeff:      0.403D-02-0.345D-01 0.171D+00-0.587D+00 0.145D+01
 Gap=     0.340 Goal=   None    Shift=    0.000
 RMSDP=3.74D-08 MaxDP=2.67D-07 DE=-3.88D-12 OVMax= 4.95D-07

 Cycle  12  Pass 1  IDiag  3:
 E= 0.568962662459001E-01 Delta-E=        0.000000000000 Rises=F Damp=F
 DIIS: error= 7.58D-09 at cycle  12 NSaved=  12.
 NSaved=12 IEnMin=12 EnMin= 0.568962662459001E-01 IErMin=12 ErrMin= 7.58D-09
 ErrMax= 7.58D-09  0.00D+00 EMaxC= 1.00D-01 BMatC= 2.73D-15 BMatP= 2.58D-14
 IDIUse=1 WtCom= 1.00D+00 WtEn= 0.00D+00
 Coeff-Com: -0.383D-06 0.153D-05 0.139D-04-0.109D-03 0.235D-03-0.415D-03
 Coeff-Com:  0.149D-02-0.147D-02-0.196D-01 0.134D+00-0.679D+00 0.157D+01
 Coeff:     -0.383D-06 0.153D-05 0.139D-04-0.109D-03 0.235D-03-0.415D-03
 Coeff:      0.149D-02-0.147D-02-0.196D-01 0.134D+00-0.679D+00 0.157D+01
 Gap=     0.340 Goal=   None    Shift=    0.000
 RMSDP=1.41D-08 MaxDP=9.90D-08 DE=-3.41D-13 OVMax= 1.77D-07

 Cycle  13  Pass 1  IDiag  3:
 E= 0.568962662459995E-01 Delta-E=        0.000000000000 Rises=F Damp=F
 DIIS: error= 1.35D-09 at cycle  13 NSaved=  13.
 NSaved=13 IEnMin=12 EnMin= 0.568962662459001E-01 IErMin=13 ErrMin= 1.35D-09
 ErrMax= 1.35D-09  0.00D+00 EMaxC= 1.00D-01 BMatC= 1.42D-16 BMatP= 2.73D-15
 IDIUse=1 WtCom= 1.00D+00 WtEn= 0.00D+00
 Coeff-Com:  0.269D-07-0.273D-07-0.397D-05 0.246D-04-0.483D-04 0.955D-04
 Coeff-Com: -0.708D-03 0.197D-02 0.515D-03-0.263D-01 0.209D+00-0.690D+00
 Coeff-Com:  0.151D+01
 Coeff:      0.269D-07-0.273D-07-0.397D-05 0.246D-04-0.483D-04 0.955D-04
 Coeff:     -0.708D-03 0.197D-02 0.515D-03-0.263D-01 0.209D+00-0.690D+00
 Coeff:      0.151D+01
 Gap=     0.340 Goal=   None    Shift=    0.000
 RMSDP=2.99D-09 MaxDP=1.68D-08 DE= 9.95D-14 OVMax= 2.90D-08

 Cycle  14  Pass 2  IDiag  1:
 SCF Done:  E(RAM1) =  0.568962662460E-01 A.U. after   14 cycles
            NFock= 13  Conv=0.30D-08     -V/T= 1.0039
 KE=-1.447638258725D+01 PE=-1.540785727234D+02 EE= 7.577809000530D+01
 Leave Link  502 at Thu Mar 24 14:30:51 2016, MaxMem=    33554432 cpu:         0.0
 (Enter /opt/g09/g09/l601.exe)
 Copying SCF densities to generalized density rwf, IOpCl= 0 IROHF=0.

 **********************************************************************

            Population analysis using the SCF density.

 **********************************************************************

 Orbital symmetries:
       Occupied  (A) (A) (A) (A) (A) (A) (A) (A) (A) (A) (A) (A)
                 (A)
       Virtual   (A) (A) (A) (A) (A) (A) (A) (A) (A) (A) (A)
 The electronic state is 1-A.
 Alpha  occ. eigenvalues --   -1.37151  -1.09231  -0.91144  -0.74478  -0.67659
 Alpha  occ. eigenvalues --   -0.59924  -0.51121  -0.50220  -0.48795  -0.48294
 Alpha  occ. eigenvalues --   -0.43152  -0.34788  -0.33982
 Alpha virt. eigenvalues --    0.00048   0.03137   0.04020   0.06416   0.15079
 Alpha virt. eigenvalues --    0.15854   0.16880   0.17338   0.18440   0.19627
 Alpha virt. eigenvalues --    0.20431
          Condensed to atoms (all electrons):
               1          2          3          4          5          6
     1  C    4.157641   0.000000   0.000000   0.000000   0.000000   0.000000
     2  C    0.000000   4.352708   0.000000   0.000000   0.000000   0.000000
     3  C    0.000000   0.000000   4.348566   0.000000   0.000000   0.000000
     4  C    0.000000   0.000000   0.000000   4.150931   0.000000   0.000000
     5  H    0.000000   0.000000   0.000000   0.000000   0.850990   0.000000
     6  H    0.000000   0.000000   0.000000   0.000000   0.000000   0.833707
     7  H    0.000000   0.000000   0.000000   0.000000   0.000000   0.000000
     8  H    0.000000   0.000000   0.000000   0.000000   0.000000   0.000000
     9  S    0.000000   0.000000   0.000000   0.000000   0.000000   0.000000
               7          8          9
     1  C    0.000000   0.000000   0.000000
     2  C    0.000000   0.000000   0.000000
     3  C    0.000000   0.000000   0.000000
     4  C    0.000000   0.000000   0.000000
     5  H    0.000000   0.000000   0.000000
     6  H    0.000000   0.000000   0.000000
     7  H    0.831047   0.000000   0.000000
     8  H    0.000000   0.850329   0.000000
     9  S    0.000000   0.000000   5.624081
 Mulliken charges:
               1
     1  C   -0.157641
     2  C   -0.352708
     3  C   -0.348566
     4  C   -0.150931
     5  H    0.149010
     6  H    0.166293
     7  H    0.168953
     8  H    0.149671
     9  S    0.375919
 Sum of Mulliken charges =   0.00000
 Mulliken charges with hydrogens summed into heavy atoms:
               1
     1  C   -0.007970
     2  C   -0.183755
     3  C   -0.182272
     4  C   -0.001921
     9  S    0.375919
 Charge=              0.0000 electrons
 Dipole moment (field-independent basis, Debye):
    X=             -0.2169    Y=             -0.0131    Z=              0.0207  Tot=              0.2183
 N-N= 9.283376157163D+01 E-N=-1.540785727246D+02  KE=-1.447638258725D+01
 Leave Link  601 at Thu Mar 24 14:30:51 2016, MaxMem=    33554432 cpu:         0.0
 (Enter /opt/g09/g09/l701.exe)
 Compute integral first derivatives.
 ... and contract with generalized density number  0.
 Leave Link  701 at Thu Mar 24 14:30:51 2016, MaxMem=    33554432 cpu:         0.0
 (Enter /opt/g09/g09/l702.exe)
 L702 exits ... SP integral derivatives will be done elsewhere.
 Leave Link  702 at Thu Mar 24 14:30:51 2016, MaxMem=    33554432 cpu:         0.0
 (Enter /opt/g09/g09/l703.exe)
 Compute integral first derivatives, UseDBF=F ICtDFT=           0.
 Integral derivatives from FoFJK, PRISM(SPDF).
 Calling FoFJK, ICntrl=      2127 FMM=F ISym2X=0 I1Cent= 0 IOpClX= 0 NMat=1 NMatS=1 NMatT=0.
 FoFJK:  IHMeth= 8 ICntrl=    2127 DoSepK=F KAlg= 0 I1Cent=   0 FoldK=F
 IRaf=         0 NMat=   1 IRICut=       1 DoRegI=T DoRafI=F ISym2E= 0.
 FoFCou: FMM=F IPFlag=           0 FMFlag=      100000 FMFlg1=         800
         NFxFlg=           0 DoJE=F BraDBF=F KetDBF=F FulRan=T
         wScrn=  0.000000 ICntrl=    2127 IOpCl=  0 I1Cent=           0 NGrid=           0
         NMat0=    1 NMatS0=      1 NMatT0=    0 NMatD0=    1 NMtDS0=    0 NMtDT0=    0
 Symmetry not used in FoFCou.
 Leave Link  703 at Thu Mar 24 14:30:51 2016, MaxMem=    33554432 cpu:         0.0
 (Enter /opt/g09/g09/l716.exe)
 Dipole        =-8.53397838D-02-5.15332912D-03 8.14240953D-03
 ***** Axes restored to original set *****
 -------------------------------------------------------------------
 Center     Atomic                   Forces (Hartrees/Bohr)
 Number     Number              X              Y              Z
 -------------------------------------------------------------------
      1        6          -0.051892960   -0.017905349    0.002928482
      2        6           0.021113125    0.054698595   -0.010795139
      3        6          -0.019814627   -0.034040190   -0.010695974
      4        6          -0.016086724   -0.003005525    0.001753070
      5        1           0.016463468    0.008261803    0.001607754
      6        1          -0.008365355    0.010592108   -0.002238349
      7        1          -0.006076495   -0.008698750   -0.002685446
      8        1           0.013720401   -0.008574428    0.001344487
      9       16           0.050939168   -0.001328266    0.018781116
 -------------------------------------------------------------------
 Cartesian Forces:  Max     0.054698595 RMS     0.021408448
 Leave Link  716 at Thu Mar 24 14:30:51 2016, MaxMem=    33554432 cpu:         0.0
 (Enter /opt/g09/g09/l103.exe)

 GradGradGradGradGradGradGradGradGradGradGradGradGradGradGradGradGradGrad
 Berny optimization.
 FormGI is forming the generalized inverse of G from B-inverse, IUseBI=4.
 Internal  Forces:  Max     0.041854308 RMS     0.012448853
 Search for a local minimum.
 Step number   1 out of a maximum of   48
 All quantities printed in internal units (Hartrees-Bohrs-Radians)
 RMS Force = .12449D-01 SwitMx=.10000D-02 MixMth= 1
 Mixed Optimization -- RFO/linear search
 Second derivative matrix not updated -- first step.
 ITU=  0
     Eigenvalues ---    0.01441   0.01605   0.01887   0.01921   0.02037
     Eigenvalues ---    0.02224   0.15998   0.15999   0.16000   0.16000
     Eigenvalues ---    0.21911   0.22612   0.28217   0.28767   0.37230
     Eigenvalues ---    0.37230   0.37230   0.37230   0.40748   0.42654
     Eigenvalues ---    0.49704
 RFO step:  Lambda=-2.11582870D-02 EMin= 1.44075289D-02
 Linear search not attempted -- first point.
 Iteration  1 RMS(Cart)=  0.06683918 RMS(Int)=  0.00519218
 Iteration  2 RMS(Cart)=  0.00524208 RMS(Int)=  0.00209330
 Iteration  3 RMS(Cart)=  0.00001593 RMS(Int)=  0.00209325
 Iteration  4 RMS(Cart)=  0.00000004 RMS(Int)=  0.00209325
 ITry= 1 IFail=0 DXMaxC= 2.68D-01 DCOld= 1.00D+10 DXMaxT= 3.00D-01 DXLimC= 3.00D+00 Rises=F
 Variable       Old X    -DE/DX   Delta X   Delta X   Delta X     New X
                                 (Linear)    (Quad)   (Total)
    R1        2.65767  -0.04185   0.00000  -0.09269  -0.09252   2.56516
    R2        2.68816   0.00651   0.00000   0.01487   0.01488   2.70304
    R3        2.02201   0.01612   0.00000   0.04097   0.04097   2.06298
    R4        2.02201   0.00943   0.00000   0.02398   0.02398   2.04598
    R5        3.33019  -0.03455   0.00000  -0.11328  -0.11316   3.21703
    R6        2.58313  -0.00052   0.00000   0.00178   0.00162   2.58475
    R7        2.02201   0.01157   0.00000   0.02941   0.02941   2.05142
    R8        3.34039  -0.03886   0.00000  -0.12226  -0.12239   3.21800
    R9        2.02201   0.01827   0.00000   0.04643   0.04643   2.06844
    A1        1.97314  -0.00267   0.00000  -0.00890  -0.01232   1.96082
    A2        2.15509   0.00168   0.00000   0.00651   0.00787   2.16296
    A3        2.15489   0.00101   0.00000   0.00283   0.00423   2.15911
    A4        2.18254   0.00080   0.00000   0.01051   0.01098   2.19352
    A5        1.91790   0.00704   0.00000   0.02644   0.02252   1.94042
    A6        2.18274  -0.00786   0.00000  -0.03727  -0.03634   2.14639
    A7        2.17263   0.00905   0.00000   0.03758   0.03845   2.21108
    A8        1.93773  -0.00532   0.00000  -0.00478  -0.00926   1.92847
    A9        2.17282  -0.00375   0.00000  -0.03310  -0.03195   2.14087
   A10        1.98329  -0.00623   0.00000  -0.01194  -0.01568   1.96761
   A11        2.14981   0.00105   0.00000  -0.00526  -0.00367   2.14614
   A12        2.15002   0.00520   0.00000   0.01763   0.01915   2.16917
   A13        1.59135   0.00874   0.00000   0.04115   0.03609   1.62745
    D1       -3.00585  -0.00251   0.00000  -0.05791  -0.05485  -3.06070
    D2        0.13111  -0.00502   0.00000  -0.13165  -0.12974   0.00138
    D3        0.12348  -0.00106   0.00000  -0.01851  -0.01732   0.10616
    D4       -3.02274  -0.00357   0.00000  -0.09225  -0.09221  -3.11495
    D5        0.00026   0.00006   0.00000   0.00317   0.00250   0.00277
    D6        3.12945   0.00142   0.00000   0.04097   0.03892  -3.11482
    D7       -3.12907  -0.00139   0.00000  -0.03626  -0.03495   3.11916
    D8        0.00011  -0.00003   0.00000   0.00155   0.00146   0.00157
    D9       -0.17143   0.00479   0.00000   0.16441   0.16752  -0.00391
   D10        2.96553   0.00230   0.00000   0.09081   0.09516   3.06069
   D11        3.00508   0.00200   0.00000   0.05390   0.05214   3.05722
   D12       -0.12411   0.00067   0.00000   0.01628   0.01536  -0.10875
   D13       -0.13209   0.00539   0.00000   0.12858   0.12651  -0.00558
   D14        3.02191   0.00406   0.00000   0.09096   0.08972   3.11163
   D15        0.17460  -0.00672   0.00000  -0.17027  -0.16916   0.00545
   D16       -2.96256  -0.00336   0.00000  -0.09580  -0.09854  -3.06110
         Item               Value     Threshold  Converged?
 Maximum Force            0.041854     0.000450     NO 
 RMS     Force            0.012449     0.000300     NO 
 Maximum Displacement     0.268220     0.001800     NO 
 RMS     Displacement     0.067226     0.001200     NO 
 Predicted change in Energy=-1.254892D-02
 Lowest energy point so far.  Saving SCF results.
 GradGradGradGradGradGradGradGradGradGradGradGradGradGradGradGradGradGrad

 Leave Link  103 at Thu Mar 24 14:30:51 2016, MaxMem=    33554432 cpu:         0.0
 (Enter /opt/g09/g09/l202.exe)
                          Input orientation:                          
 ---------------------------------------------------------------------
 Center     Atomic      Atomic             Coordinates (Angstroms)
 Number     Number       Type             X           Y           Z
 ---------------------------------------------------------------------
      1          6           0        0.876035   -0.693821   -0.010297
      2          6           0       -0.382162   -1.203263   -0.013038
      3          6           0       -0.375003    1.271428    0.032479
      4          6           0        0.883644    0.736340    0.013973
      5          1           0        1.804693    1.327439   -0.004900
      6          1           0       -0.631752    2.322069    0.125646
      7          1           0       -0.638178   -2.253837    0.041390
      8          1           0        1.780535   -1.303934   -0.047809
      9         16           0       -1.547943    0.037082    0.011338
 ---------------------------------------------------------------------
                    Distance matrix (angstroms):
                    1          2          3          4          5
     1  C    0.000000
     2  C    1.357423   0.000000
     3  C    2.330049   2.475120   0.000000
     4  C    1.430387   2.316258   1.367792   0.000000
     5  H    2.224393   3.344675   2.180737   1.094571   0.000000
     6  H    3.374536   3.536876   1.085563   2.196232   2.634881
     7  H    2.174664   1.082688   3.535086   3.355272   4.335355
     8  H    1.091680   2.165318   3.359357   2.229562   2.631834
     9  S    2.531868   1.702380   1.702893   2.530136   3.592416
                    6          7          8          9
     6  H    0.000000
     7  H    4.576686   0.000000
     8  H    4.358568   2.600086   0.000000
     9  S    2.464476   2.465134   3.588954   0.000000
 Stoichiometry    C4H4S
 Framework group  C1[X(C4H4S)]
 Deg. of freedom    21
 Full point group                 C1      NOp   1
 RotChk:  IX=3 Diff= 7.88D-02
 Largest Abelian subgroup         C1      NOp   1
 Largest concise Abelian subgroup C1      NOp   1
                         Standard orientation:                         
 ---------------------------------------------------------------------
 Center     Atomic      Atomic             Coordinates (Angstroms)
 Number     Number       Type             X           Y           Z
 ---------------------------------------------------------------------
      1          6           0       -1.262689    0.701705    0.001256
      2          6           0       -0.014025    1.234088   -0.000725
      3          6           0        0.024187   -1.240736    0.000228
      4          6           0       -1.244092   -0.728560   -0.000204
      5          1           0       -2.154337   -1.336008   -0.023561
      6          1           0        0.300667   -2.287995    0.072724
      7          1           0        0.223200    2.288036    0.070913
      8          1           0       -2.178387    1.295712   -0.019198
      9         16           0        1.174285    0.015080   -0.006513
 ---------------------------------------------------------------------
 Rotational constants (GHZ):      8.0105600      5.5383871      3.2749944
 Leave Link  202 at Thu Mar 24 14:30:51 2016, MaxMem=    33554432 cpu:         0.0
 (Enter /opt/g09/g09/l301.exe)
 Standard basis: VSTO-6G (5D, 7F)
 Ernie: Thresh=  0.10000D-02 Tol=  0.10000D-05 Strict=F.
  NNHCO=     0 NNPyr=     0 NCTC=     0               EPep=         0.000000000
    EC=        63.741674155  ECS=         1.665532639   EG=         0.140354794
   EHC=         0.000000000  EAt=       -26.480868474  AtH=         1.527256635
 EPDDG=         0.000000000  ECC=        65.547561588 EAtT=        28.008125109
 There are    24 symmetry adapted cartesian basis functions of A   symmetry.
 There are    24 symmetry adapted basis functions of A   symmetry.
    24 basis functions,   144 primitive gaussians,    24 cartesian basis functions
    13 alpha electrons       13 beta electrons
       nuclear repulsion energy        93.5556866976 Hartrees.



 Warning!  S  atom    9 may be hypervalent but has no d functions.



 IExCor=    0 DFT=F Ex=HF Corr=None ExCW=0 ScaHFX=  1.000000
 ScaDFX=  1.000000  1.000000  1.000000  1.000000 ScalE2=  1.000000  1.000000
 IRadAn=      0 IRanWt=     -1 IRanGd=            0 ICorTp=0 IEmpDi=  4
 Integral buffers will be    131072 words long.
 Regular integral format.
 Two-electron integral symmetry is turned off.
 Leave Link  301 at Thu Mar 24 14:30:51 2016, MaxMem=    33554432 cpu:         0.0
 (Enter /opt/g09/g09/l302.exe)
 Do NDO integrals.
 NPDir=0 NMtPBC=     1 NCelOv=     1 NCel=       1 NClECP=     1 NCelD=      1
         NCelK=      1 NCelE2=     1 NClLst=     1 CellRange=     0.0.
 One-electron integrals computed using PRISM.
 NBasis=    24 RedAO= F EigKep=  0.00D+00  NBF=    24
 NBsUse=    24 1.00D-04 EigRej=  0.00D+00 NBFU=    24
 Leave Link  302 at Thu Mar 24 14:30:51 2016, MaxMem=    33554432 cpu:         0.0
 (Enter /opt/g09/g09/l303.exe)
 DipDrv:  MaxL=1.
 Leave Link  303 at Thu Mar 24 14:30:51 2016, MaxMem=    33554432 cpu:         0.0
 (Enter /opt/g09/g09/l401.exe)
 Initial guess from the checkpoint file:  "freq.chk"
 B after Tr=     0.000000    0.000000    0.000000
         Rot=    0.999866   -0.000268   -0.000765   -0.016380 Ang=  -1.88 deg.
 Guess basis will be translated and rotated to current coordinates.
 JPrj=0 DoOrth=T DoCkMO=T.
 Leave Link  401 at Thu Mar 24 14:30:51 2016, MaxMem=    33554432 cpu:         0.0
 (Enter /opt/g09/g09/l502.exe)
 Closed shell SCF:
 Using DIIS extrapolation, IDIIS=  1040.
 Overlap will be assumed to be unity.
 Two-electron integral symmetry not used.
 Keep J ints in memory in canonical form, NReq=888082.
 IVT=       79475 IEndB=       79475 NGot=    33554432 MDV=    33473473
 LenX=    33473473 LenY=    33472456
 Requested convergence on RMS density matrix=1.00D-08 within 128 cycles.
 Requested convergence on MAX density matrix=1.00D-06.
 Requested convergence on             energy=1.00D-06.
 No special actions if energy rises.
 FoFCou: FMM=F IPFlag=           0 FMFlag=           0 FMFlg1=           0
         NFxFlg=           0 DoJE=F BraDBF=F KetDBF=F FulRan=T
         wScrn=  0.000000 ICntrl=     600 IOpCl=  2 I1Cent=           0 NGrid=           0
         NMat0=    1 NMatS0=     54 NMatT0=    0 NMatD0=    1 NMtDS0=    0 NMtDT0=    0
 Symmetry not used in FoFCou.

 Cycle   1  Pass 1  IDiag  1:
 E= 0.606753363696981E-01
 DIIS: error= 7.90D-03 at cycle   1 NSaved=   1.
 NSaved= 1 IEnMin= 1 EnMin= 0.606753363696981E-01 IErMin= 1 ErrMin= 7.90D-03
 ErrMax= 7.90D-03  0.00D+00 EMaxC= 1.00D-01 BMatC= 3.17D-03 BMatP= 3.17D-03
 IDIUse=3 WtCom= 9.21D-01 WtEn= 7.90D-02
 Coeff-Com:  0.100D+01
 Coeff-En:   0.100D+01
 Coeff:      0.100D+01
 GapD=    2.000 DampG=2.000 DampE=1.000 DampFc=2.0000 IDamp=-1.
 RMSDP=4.73D-03 MaxDP=2.25D-02              OVMax= 0.00D+00

 Cycle   2  Pass 1  IDiag  3:
 E= 0.487850654992741E-01 Delta-E=       -0.011890270870 Rises=F Damp=F
 DIIS: error= 3.42D-03 at cycle   2 NSaved=   2.
 NSaved= 2 IEnMin= 2 EnMin= 0.487850654992741E-01 IErMin= 2 ErrMin= 3.42D-03
 ErrMax= 3.42D-03  0.00D+00 EMaxC= 1.00D-01 BMatC= 5.06D-04 BMatP= 3.17D-03
 IDIUse=3 WtCom= 9.66D-01 WtEn= 3.42D-02
 Coeff-Com: -0.509D+00 0.151D+01
 Coeff-En:   0.000D+00 0.100D+01
 Coeff:     -0.492D+00 0.149D+01
 Gap=     0.347 Goal=   None    Shift=    0.000
 RMSDP=3.42D-03 MaxDP=1.60D-02 DE=-1.19D-02 OVMax= 2.38D-02

 Cycle   3  Pass 1  IDiag  3:
 E= 0.456582692943357E-01 Delta-E=       -0.003126796205 Rises=F Damp=F
 DIIS: error= 8.12D-04 at cycle   3 NSaved=   3.
 NSaved= 3 IEnMin= 3 EnMin= 0.456582692943357E-01 IErMin= 3 ErrMin= 8.12D-04
 ErrMax= 8.12D-04  0.00D+00 EMaxC= 1.00D-01 BMatC= 3.55D-05 BMatP= 5.06D-04
 IDIUse=3 WtCom= 9.92D-01 WtEn= 8.12D-03
 Coeff-Com:  0.249D+00-0.923D+00 0.167D+01
 Coeff-En:   0.000D+00 0.000D+00 0.100D+01
 Coeff:      0.247D+00-0.915D+00 0.167D+01
 Gap=     0.347 Goal=   None    Shift=    0.000
 RMSDP=1.36D-03 MaxDP=6.85D-03 DE=-3.13D-03 OVMax= 1.10D-02

 Cycle   4  Pass 1  IDiag  3:
 E= 0.453553690633157E-01 Delta-E=       -0.000302900231 Rises=F Damp=F
 DIIS: error= 1.62D-04 at cycle   4 NSaved=   4.
 NSaved= 4 IEnMin= 4 EnMin= 0.453553690633157E-01 IErMin= 4 ErrMin= 1.62D-04
 ErrMax= 1.62D-04  0.00D+00 EMaxC= 1.00D-01 BMatC= 1.26D-06 BMatP= 3.55D-05
 IDIUse=3 WtCom= 9.98D-01 WtEn= 1.62D-03
 Coeff-Com: -0.123D+00 0.468D+00-0.946D+00 0.160D+01
 Coeff-En:   0.000D+00 0.000D+00 0.000D+00 0.100D+01
 Coeff:     -0.123D+00 0.467D+00-0.944D+00 0.160D+01
 Gap=     0.347 Goal=   None    Shift=    0.000
 RMSDP=2.76D-04 MaxDP=1.45D-03 DE=-3.03D-04 OVMax= 3.31D-03

 Cycle   5  Pass 1  IDiag  3:
 E= 0.453430744812948E-01 Delta-E=       -0.000012294582 Rises=F Damp=F
 DIIS: error= 4.49D-05 at cycle   5 NSaved=   5.
 NSaved= 5 IEnMin= 5 EnMin= 0.453430744812948E-01 IErMin= 5 ErrMin= 4.49D-05
 ErrMax= 4.49D-05  0.00D+00 EMaxC= 1.00D-01 BMatC= 8.54D-08 BMatP= 1.26D-06
 IDIUse=1 WtCom= 1.00D+00 WtEn= 0.00D+00
 Coeff-Com:  0.246D-01-0.960D-01 0.213D+00-0.596D+00 0.145D+01
 Coeff:      0.246D-01-0.960D-01 0.213D+00-0.596D+00 0.145D+01
 Gap=     0.347 Goal=   None    Shift=    0.000
 RMSDP=7.60D-05 MaxDP=4.65D-04 DE=-1.23D-05 OVMax= 1.00D-03

 Cycle   6  Pass 1  IDiag  3:
 E= 0.453422296461952E-01 Delta-E=       -0.000000844835 Rises=F Damp=F
 DIIS: error= 9.98D-06 at cycle   6 NSaved=   6.
 NSaved= 6 IEnMin= 6 EnMin= 0.453422296461952E-01 IErMin= 6 ErrMin= 9.98D-06
 ErrMax= 9.98D-06  0.00D+00 EMaxC= 1.00D-01 BMatC= 5.65D-09 BMatP= 8.54D-08
 IDIUse=1 WtCom= 1.00D+00 WtEn= 0.00D+00
 Coeff-Com: -0.495D-02 0.199D-01-0.487D-01 0.192D+00-0.691D+00 0.153D+01
 Coeff:     -0.495D-02 0.199D-01-0.487D-01 0.192D+00-0.691D+00 0.153D+01
 Gap=     0.347 Goal=   None    Shift=    0.000
 RMSDP=1.77D-05 MaxDP=1.08D-04 DE=-8.45D-07 OVMax= 2.25D-04

 Cycle   7  Pass 1  IDiag  3:
 E= 0.453421801265961E-01 Delta-E=       -0.000000049520 Rises=F Damp=F
 DIIS: error= 2.25D-06 at cycle   7 NSaved=   7.
 NSaved= 7 IEnMin= 7 EnMin= 0.453421801265961E-01 IErMin= 7 ErrMin= 2.25D-06
 ErrMax= 2.25D-06  0.00D+00 EMaxC= 1.00D-01 BMatC= 3.18D-10 BMatP= 5.65D-09
 IDIUse=1 WtCom= 1.00D+00 WtEn= 0.00D+00
 Coeff-Com:  0.931D-03-0.385D-02 0.103D-01-0.491D-01 0.202D+00-0.621D+00
 Coeff-Com:  0.146D+01
 Coeff:      0.931D-03-0.385D-02 0.103D-01-0.491D-01 0.202D+00-0.621D+00
 Coeff:      0.146D+01
 Gap=     0.347 Goal=   None    Shift=    0.000
 RMSDP=3.89D-06 MaxDP=2.09D-05 DE=-4.95D-08 OVMax= 4.06D-05

 Cycle   8  Pass 1  IDiag  3:
 E= 0.453421775656864E-01 Delta-E=       -0.000000002561 Rises=F Damp=F
 DIIS: error= 5.83D-07 at cycle   8 NSaved=   8.
 NSaved= 8 IEnMin= 8 EnMin= 0.453421775656864E-01 IErMin= 8 ErrMin= 5.83D-07
 ErrMax= 5.83D-07  0.00D+00 EMaxC= 1.00D-01 BMatC= 1.74D-11 BMatP= 3.18D-10
 IDIUse=1 WtCom= 1.00D+00 WtEn= 0.00D+00
 Coeff-Com: -0.163D-05 0.366D-04-0.375D-03 0.464D-02-0.249D-01 0.106D+00
 Coeff-Com: -0.439D+00 0.135D+01
 Coeff:     -0.163D-05 0.366D-04-0.375D-03 0.464D-02-0.249D-01 0.106D+00
 Coeff:     -0.439D+00 0.135D+01
 Gap=     0.347 Goal=   None    Shift=    0.000
 RMSDP=8.02D-07 MaxDP=3.89D-06 DE=-2.56D-09 OVMax= 5.11D-06

 Cycle   9  Pass 1  IDiag  3:
 E= 0.453421774331417E-01 Delta-E=       -0.000000000133 Rises=F Damp=F
 DIIS: error= 1.70D-07 at cycle   9 NSaved=   9.
 NSaved= 9 IEnMin= 9 EnMin= 0.453421774331417E-01 IErMin= 9 ErrMin= 1.70D-07
 ErrMax= 1.70D-07  0.00D+00 EMaxC= 1.00D-01 BMatC= 1.62D-12 BMatP= 1.74D-11
 IDIUse=1 WtCom= 1.00D+00 WtEn= 0.00D+00
 Coeff-Com: -0.427D-04 0.169D-03-0.389D-03 0.121D-02-0.311D-02-0.360D-02
 Coeff-Com:  0.952D-01-0.616D+00 0.153D+01
 Coeff:     -0.427D-04 0.169D-03-0.389D-03 0.121D-02-0.311D-02-0.360D-02
 Coeff:      0.952D-01-0.616D+00 0.153D+01
 Gap=     0.347 Goal=   None    Shift=    0.000
 RMSDP=2.81D-07 MaxDP=1.35D-06 DE=-1.33D-10 OVMax= 2.16D-06

 Cycle  10  Pass 1  IDiag  3:
 E= 0.453421774191440E-01 Delta-E=       -0.000000000014 Rises=F Damp=F
 DIIS: error= 6.18D-08 at cycle  10 NSaved=  10.
 NSaved=10 IEnMin=10 EnMin= 0.453421774191440E-01 IErMin=10 ErrMin= 6.18D-08
 ErrMax= 6.18D-08  0.00D+00 EMaxC= 1.00D-01 BMatC= 1.12D-13 BMatP= 1.62D-12
 IDIUse=1 WtCom= 1.00D+00 WtEn= 0.00D+00
 Coeff-Com:  0.291D-04-0.117D-03 0.289D-03-0.113D-02 0.375D-02-0.537D-02
 Coeff-Com: -0.254D-01 0.262D+00-0.868D+00 0.163D+01
 Coeff:      0.291D-04-0.117D-03 0.289D-03-0.113D-02 0.375D-02-0.537D-02
 Coeff:     -0.254D-01 0.262D+00-0.868D+00 0.163D+01
 Gap=     0.347 Goal=   None    Shift=    0.000
 RMSDP=8.96D-08 MaxDP=5.44D-07 DE=-1.40D-11 OVMax= 7.83D-07

 Cycle  11  Pass 1  IDiag  3:
 E= 0.453421774180640E-01 Delta-E=       -0.000000000001 Rises=F Damp=F
 DIIS: error= 1.38D-08 at cycle  11 NSaved=  11.
 NSaved=11 IEnMin=11 EnMin= 0.453421774180640E-01 IErMin=11 ErrMin= 1.38D-08
 ErrMax= 1.38D-08  0.00D+00 EMaxC= 1.00D-01 BMatC= 7.17D-15 BMatP= 1.12D-13
 IDIUse=1 WtCom= 1.00D+00 WtEn= 0.00D+00
 Coeff-Com: -0.136D-04 0.554D-04-0.141D-03 0.593D-03-0.206D-02 0.342D-02
 Coeff-Com:  0.102D-01-0.125D+00 0.444D+00-0.998D+00 0.167D+01
 Coeff:     -0.136D-04 0.554D-04-0.141D-03 0.593D-03-0.206D-02 0.342D-02
 Coeff:      0.102D-01-0.125D+00 0.444D+00-0.998D+00 0.167D+01
 Gap=     0.347 Goal=   None    Shift=    0.000
 RMSDP=2.39D-08 MaxDP=1.41D-07 DE=-1.08D-12 OVMax= 2.73D-07

 Cycle  12  Pass 1  IDiag  3:
 E= 0.453421774178508E-01 Delta-E=        0.000000000000 Rises=F Damp=F
 DIIS: error= 3.48D-09 at cycle  12 NSaved=  12.
 NSaved=12 IEnMin=12 EnMin= 0.453421774178508E-01 IErMin=12 ErrMin= 3.48D-09
 ErrMax= 3.48D-09  0.00D+00 EMaxC= 1.00D-01 BMatC= 5.81D-16 BMatP= 7.17D-15
 IDIUse=1 WtCom= 1.00D+00 WtEn= 0.00D+00
 Coeff-Com:  0.573D-05-0.233D-04 0.587D-04-0.243D-03 0.833D-03-0.139D-02
 Coeff-Com: -0.390D-02 0.488D-01-0.176D+00 0.417D+00-0.905D+00 0.162D+01
 Coeff:      0.573D-05-0.233D-04 0.587D-04-0.243D-03 0.833D-03-0.139D-02
 Coeff:     -0.390D-02 0.488D-01-0.176D+00 0.417D+00-0.905D+00 0.162D+01
 Gap=     0.347 Goal=   None    Shift=    0.000
 RMSDP=6.88D-09 MaxDP=4.01D-08 DE=-2.13D-13 OVMax= 9.01D-08

 Cycle  13  Pass 2  IDiag  1:
 SCF Done:  E(RAM1) =  0.453421774179E-01 A.U. after   13 cycles
            NFock= 12  Conv=0.69D-08     -V/T= 1.0031
 KE=-1.453510744819D+01 PE=-1.553820880351D+02 EE= 7.640685096308D+01
 Leave Link  502 at Thu Mar 24 14:30:51 2016, MaxMem=    33554432 cpu:         0.0
 (Enter /opt/g09/g09/l701.exe)
 Compute integral first derivatives.
 ... and contract with generalized density number  0.
 Leave Link  701 at Thu Mar 24 14:30:51 2016, MaxMem=    33554432 cpu:         0.0
 (Enter /opt/g09/g09/l702.exe)
 L702 exits ... SP integral derivatives will be done elsewhere.
 Leave Link  702 at Thu Mar 24 14:30:51 2016, MaxMem=    33554432 cpu:         0.0
 (Enter /opt/g09/g09/l703.exe)
 Compute integral first derivatives, UseDBF=F ICtDFT=           0.
 Integral derivatives from FoFJK, PRISM(SPDF).
 Calling FoFJK, ICntrl=      2127 FMM=F ISym2X=0 I1Cent= 0 IOpClX= 0 NMat=1 NMatS=1 NMatT=0.
 FoFJK:  IHMeth= 8 ICntrl=    2127 DoSepK=F KAlg= 0 I1Cent=   0 FoldK=F
 IRaf=         0 NMat=   1 IRICut=       1 DoRegI=T DoRafI=F ISym2E= 0.
 FoFCou: FMM=F IPFlag=           0 FMFlag=      100000 FMFlg1=         800
         NFxFlg=           0 DoJE=F BraDBF=F KetDBF=F FulRan=T
         wScrn=  0.000000 ICntrl=    2127 IOpCl=  0 I1Cent=           0 NGrid=           0
         NMat0=    1 NMatS0=      1 NMatT0=    0 NMatD0=    1 NMtDS0=    0 NMtDT0=    0
 Symmetry not used in FoFCou.
 Leave Link  703 at Thu Mar 24 14:30:51 2016, MaxMem=    33554432 cpu:         0.0
 (Enter /opt/g09/g09/l716.exe)
 Dipole        = 3.54524655D-02 2.61252055D-03 3.56106635D-02
 ***** Axes restored to original set *****
 -------------------------------------------------------------------
 Center     Atomic                   Forces (Hartrees/Bohr)
 Number     Number              X              Y              Z
 -------------------------------------------------------------------
      1        6           0.015654239    0.001172421   -0.003272802
      2        6          -0.023340051    0.005347148    0.005118751
      3        6          -0.011665218   -0.011582453    0.004548404
      4        6           0.009202620    0.007466886   -0.002725816
      5        1          -0.000038527   -0.001450554    0.001297082
      6        1          -0.000809105    0.001046816   -0.003086248
      7        1          -0.003144189   -0.003473363   -0.002996455
      8        1           0.002697752    0.001396605    0.001239576
      9       16           0.011442479    0.000076493   -0.000122492
 -------------------------------------------------------------------
 Cartesian Forces:  Max     0.023340051 RMS     0.007411683
 Leave Link  716 at Thu Mar 24 14:30:51 2016, MaxMem=    33554432 cpu:         0.0
 (Enter /opt/g09/g09/l103.exe)

 GradGradGradGradGradGradGradGradGradGradGradGradGradGradGradGradGradGrad
 Berny optimization.
 Using GEDIIS/GDIIS optimizer.
 FormGI is forming the generalized inverse of G from B-inverse, IUseBI=4.
 Internal  Forces:  Max     0.020031020 RMS     0.004566641
 Search for a local minimum.
 Step number   2 out of a maximum of   48
 All quantities printed in internal units (Hartrees-Bohrs-Radians)
 RMS Force = .45666D-02 SwitMx=.10000D-02 MixMth= 1
 Mixed Optimization -- RFO/linear search
 Update second derivatives using D2CorX and points    1    2
 DE= -1.16D-02 DEPred=-1.25D-02 R= 9.21D-01
 TightC=F SS=  1.41D+00  RLast= 4.27D-01 DXNew= 5.0454D-01 1.2812D+00
 Trust test= 9.21D-01 RLast= 4.27D-01 DXMaxT set to 5.05D-01
 ITU=  1  0
 Use linear search instead of GDIIS.
     Eigenvalues ---    0.01551   0.01711   0.01890   0.02006   0.02108
     Eigenvalues ---    0.02230   0.15166   0.15959   0.15992   0.16097
     Eigenvalues ---    0.20798   0.22088   0.23622   0.28437   0.36674
     Eigenvalues ---    0.37230   0.37230   0.37339   0.40791   0.47806
     Eigenvalues ---    0.56082
 RFO step:  Lambda=-3.37568403D-03 EMin= 1.55128125D-02
 Quartic linear search produced a step of  0.05388.
 Iteration  1 RMS(Cart)=  0.03420673 RMS(Int)=  0.00153033
 Iteration  2 RMS(Cart)=  0.00127363 RMS(Int)=  0.00068848
 Iteration  3 RMS(Cart)=  0.00000151 RMS(Int)=  0.00068847
 Iteration  4 RMS(Cart)=  0.00000000 RMS(Int)=  0.00068847
 ITry= 1 IFail=0 DXMaxC= 9.29D-02 DCOld= 1.00D+10 DXMaxT= 5.05D-01 DXLimC= 3.00D+00 Rises=F
 Variable       Old X    -DE/DX   Delta X   Delta X   Delta X     New X
                                 (Linear)    (Quad)   (Total)
    R1        2.56516   0.02003  -0.00499   0.03889   0.03396   2.59912
    R2        2.70304   0.00279   0.00080   0.01016   0.01095   2.71399
    R3        2.06298   0.00141   0.00221   0.00816   0.01037   2.07334
    R4        2.04598   0.00396   0.00129   0.01354   0.01483   2.06081
    R5        3.21703  -0.01008  -0.00610  -0.04770  -0.05375   3.16328
    R6        2.58475   0.00618   0.00009   0.01227   0.01229   2.59705
    R7        2.05142   0.00094   0.00158   0.00565   0.00724   2.05865
    R8        3.21800  -0.00833  -0.00659  -0.04540  -0.05203   3.16597
    R9        2.06844  -0.00084   0.00250   0.00244   0.00494   2.07338
    A1        1.96082  -0.00370  -0.00066  -0.01267  -0.01298   1.94784
    A2        2.16296   0.00463   0.00042   0.02449   0.02471   2.18767
    A3        2.15911  -0.00093   0.00023  -0.01159  -0.01158   2.14753
    A4        2.19352   0.00240   0.00059   0.01831   0.01691   2.21043
    A5        1.94042  -0.00001   0.00121   0.00609   0.00599   1.94641
    A6        2.14639  -0.00223  -0.00196  -0.01646  -0.02035   2.12604
    A7        2.21108  -0.00201   0.00207   0.00040   0.00117   2.21225
    A8        1.92847   0.00544  -0.00050   0.02085   0.01940   1.94787
    A9        2.14087  -0.00327  -0.00172  -0.01481  -0.01783   2.12304
   A10        1.96761  -0.00461  -0.00085  -0.02155  -0.02216   1.94545
   A11        2.14614   0.00108  -0.00020   0.00180   0.00146   2.14761
   A12        2.16917   0.00354   0.00103   0.01980   0.02069   2.18986
   A13        1.62745   0.00288   0.00194   0.00718   0.00964   1.63708
    D1       -3.06070  -0.00168  -0.00296  -0.09147  -0.09515   3.12733
    D2        0.00138   0.00039  -0.00699   0.01795   0.01090   0.01228
    D3        0.10616  -0.00194  -0.00093  -0.10091  -0.10242   0.00374
    D4       -3.11495   0.00013  -0.00497   0.00851   0.00363  -3.11131
    D5        0.00277  -0.00010   0.00013  -0.00615  -0.00604  -0.00328
    D6       -3.11482  -0.00031   0.00210  -0.00868  -0.00640  -3.12122
    D7        3.11916   0.00025  -0.00188   0.00387   0.00164   3.12080
    D8        0.00157   0.00005   0.00008   0.00134   0.00128   0.00285
    D9       -0.00391  -0.00047   0.00903  -0.01970  -0.01028  -0.01419
   D10        3.06069   0.00178   0.00513   0.08807   0.09177  -3.13073
   D11        3.05722   0.00185   0.00281   0.08228   0.08544  -3.14052
   D12       -0.10875   0.00202   0.00083   0.08455   0.08548  -0.02327
   D13       -0.00558  -0.00026   0.00682  -0.00859  -0.00159  -0.00717
   D14        3.11163  -0.00009   0.00483  -0.00633  -0.00155   3.11008
   D15        0.00545   0.00044  -0.00911   0.01611   0.00684   0.01228
   D16       -3.06110  -0.00162  -0.00531  -0.07116  -0.07597  -3.13707
         Item               Value     Threshold  Converged?
 Maximum Force            0.020031     0.000450     NO 
 RMS     Force            0.004567     0.000300     NO 
 Maximum Displacement     0.092865     0.001800     NO 
 RMS     Displacement     0.034455     0.001200     NO 
 Predicted change in Energy=-1.841250D-03
 Lowest energy point so far.  Saving SCF results.
 GradGradGradGradGradGradGradGradGradGradGradGradGradGradGradGradGradGrad

 Leave Link  103 at Thu Mar 24 14:30:51 2016, MaxMem=    33554432 cpu:         0.0
 (Enter /opt/g09/g09/l202.exe)
                          Input orientation:                          
 ---------------------------------------------------------------------
 Center     Atomic      Atomic             Coordinates (Angstroms)
 Number     Number       Type             X           Y           Z
 ---------------------------------------------------------------------
      1          6           0        0.888824   -0.694262   -0.003201
      2          6           0       -0.392774   -1.193076    0.016766
      3          6           0       -0.377781    1.252063    0.055380
      4          6           0        0.897789    0.741673    0.021934
      5          1           0        1.820330    1.334877   -0.007047
      6          1           0       -0.658392    2.304443    0.078373
      7          1           0       -0.682667   -2.244088   -0.007752
      8          1           0        1.804034   -1.297526   -0.050506
      9         16           0       -1.529494    0.035398    0.044834
 ---------------------------------------------------------------------
                    Distance matrix (angstroms):
                    1          2          3          4          5
     1  C    0.000000
     2  C    1.375394   0.000000
     3  C    2.322907   2.445490   0.000000
     4  C    1.436183   2.325690   1.374298   0.000000
     5  H    2.232739   3.359903   2.200556   1.097184   0.000000
     6  H    3.375317   3.508131   1.089392   2.206158   2.662972
     7  H    2.207163   1.090535   3.509988   3.378386   4.367378
     8  H    1.097167   2.200318   3.357370   2.232680   2.632813
     9  S    2.526455   1.673938   1.675359   2.528053   3.593419
                    6          7          8          9
     6  H    0.000000
     7  H    4.549411   0.000000
     8  H    4.365127   2.661107   0.000000
     9  S    2.430742   2.432270   3.591404   0.000000
 Stoichiometry    C4H4S
 Framework group  C1[X(C4H4S)]
 Deg. of freedom    21
 Full point group                 C1      NOp   1
 RotChk:  IX=2 Diff= 2.63D-02
 Largest Abelian subgroup         C1      NOp   1
 Largest concise Abelian subgroup C1      NOp   1
                         Standard orientation:                         
 ---------------------------------------------------------------------
 Center     Atomic      Atomic             Coordinates (Angstroms)
 Number     Number       Type             X           Y           Z
 ---------------------------------------------------------------------
      1          6           0       -1.256694    0.720865    0.001214
      2          6           0        0.023831    1.222778    0.008218
      3          6           0        0.015490   -1.222696    0.005286
      4          6           0       -1.261711   -0.715309    0.001953
      5          1           0       -2.183150   -1.310459   -0.021694
      6          1           0        0.299031   -2.274542    0.005586
      7          1           0        0.310690    2.274846   -0.003192
      8          1           0       -2.174047    1.322338   -0.020429
      9         16           0        1.163874   -0.002876   -0.003769
 ---------------------------------------------------------------------
 Rotational constants (GHZ):      8.1272871      5.5555304      3.2999675
 Leave Link  202 at Thu Mar 24 14:30:51 2016, MaxMem=    33554432 cpu:         0.0
 (Enter /opt/g09/g09/l301.exe)
 Standard basis: VSTO-6G (5D, 7F)
 Ernie: Thresh=  0.10000D-02 Tol=  0.10000D-05 Strict=F.
  NNHCO=     0 NNPyr=     0 NCTC=     0               EPep=         0.000000000
    EC=        63.833072843  ECS=         1.662326558   EG=         0.137430672
   EHC=         0.000000000  EAt=       -26.480868474  AtH=         1.527256635
 EPDDG=         0.000000000  ECC=        65.632830073 EAtT=        28.008125109
 There are    24 symmetry adapted cartesian basis functions of A   symmetry.
 There are    24 symmetry adapted basis functions of A   symmetry.
    24 basis functions,   144 primitive gaussians,    24 cartesian basis functions
    13 alpha electrons       13 beta electrons
       nuclear repulsion energy        93.6409551826 Hartrees.



 Warning!  S  atom    9 may be hypervalent but has no d functions.



 IExCor=    0 DFT=F Ex=HF Corr=None ExCW=0 ScaHFX=  1.000000
 ScaDFX=  1.000000  1.000000  1.000000  1.000000 ScalE2=  1.000000  1.000000
 IRadAn=      0 IRanWt=     -1 IRanGd=            0 ICorTp=0 IEmpDi=  4
 Integral buffers will be    131072 words long.
 Regular integral format.
 Two-electron integral symmetry is turned off.
 Leave Link  301 at Thu Mar 24 14:30:51 2016, MaxMem=    33554432 cpu:         0.0
 (Enter /opt/g09/g09/l302.exe)
 Do NDO integrals.
 NPDir=0 NMtPBC=     1 NCelOv=     1 NCel=       1 NClECP=     1 NCelD=      1
         NCelK=      1 NCelE2=     1 NClLst=     1 CellRange=     0.0.
 One-electron integrals computed using PRISM.
 NBasis=    24 RedAO= F EigKep=  0.00D+00  NBF=    24
 NBsUse=    24 1.00D-04 EigRej=  0.00D+00 NBFU=    24
 Leave Link  302 at Thu Mar 24 14:30:51 2016, MaxMem=    33554432 cpu:         0.0
 (Enter /opt/g09/g09/l303.exe)
 DipDrv:  MaxL=1.
 Leave Link  303 at Thu Mar 24 14:30:51 2016, MaxMem=    33554432 cpu:         0.0
 (Enter /opt/g09/g09/l401.exe)
 Initial guess from the checkpoint file:  "freq.chk"
 B after Tr=     0.000000    0.000000    0.000000
         Rot=    0.999970    0.000019   -0.000099    0.007802 Ang=   0.89 deg.
 Guess basis will be translated and rotated to current coordinates.
 JPrj=0 DoOrth=T DoCkMO=T.
 Leave Link  401 at Thu Mar 24 14:30:51 2016, MaxMem=    33554432 cpu:         0.0
 (Enter /opt/g09/g09/l502.exe)
 Closed shell SCF:
 Using DIIS extrapolation, IDIIS=  1040.
 Overlap will be assumed to be unity.
 Two-electron integral symmetry not used.
 Keep J ints in memory in canonical form, NReq=888082.
 IVT=       79475 IEndB=       79475 NGot=    33554432 MDV=    33473473
 LenX=    33473473 LenY=    33472456
 Requested convergence on RMS density matrix=1.00D-08 within 128 cycles.
 Requested convergence on MAX density matrix=1.00D-06.
 Requested convergence on             energy=1.00D-06.
 No special actions if energy rises.
 FoFCou: FMM=F IPFlag=           0 FMFlag=           0 FMFlg1=           0
         NFxFlg=           0 DoJE=F BraDBF=F KetDBF=F FulRan=T
         wScrn=  0.000000 ICntrl=     600 IOpCl=  2 I1Cent=           0 NGrid=           0
         NMat0=    1 NMatS0=     54 NMatT0=    0 NMatD0=    1 NMtDS0=    0 NMtDT0=    0
 Symmetry not used in FoFCou.

 Cycle   1  Pass 1  IDiag  1:
 E= 0.456583054003090E-01
 DIIS: error= 2.42D-03 at cycle   1 NSaved=   1.
 NSaved= 1 IEnMin= 1 EnMin= 0.456583054003090E-01 IErMin= 1 ErrMin= 2.42D-03
 ErrMax= 2.42D-03  0.00D+00 EMaxC= 1.00D-01 BMatC= 3.75D-04 BMatP= 3.75D-04
 IDIUse=3 WtCom= 9.76D-01 WtEn= 2.42D-02
 Coeff-Com:  0.100D+01
 Coeff-En:   0.100D+01
 Coeff:      0.100D+01
 GapD=    2.000 DampG=2.000 DampE=1.000 DampFc=2.0000 IDamp=-1.
 RMSDP=1.70D-03 MaxDP=1.03D-02              OVMax= 0.00D+00

 Cycle   2  Pass 1  IDiag  3:
 E= 0.441745530558535E-01 Delta-E=       -0.001483752344 Rises=F Damp=F
 DIIS: error= 1.10D-03 at cycle   2 NSaved=   2.
 NSaved= 2 IEnMin= 2 EnMin= 0.441745530558535E-01 IErMin= 2 ErrMin= 1.10D-03
 ErrMax= 1.10D-03  0.00D+00 EMaxC= 1.00D-01 BMatC= 6.01D-05 BMatP= 3.75D-04
 IDIUse=3 WtCom= 9.89D-01 WtEn= 1.10D-02
 Coeff-Com: -0.534D+00 0.153D+01
 Coeff-En:   0.000D+00 0.100D+01
 Coeff:     -0.528D+00 0.153D+01
 Gap=     0.347 Goal=   None    Shift=    0.000
 RMSDP=1.19D-03 MaxDP=7.38D-03 DE=-1.48D-03 OVMax= 9.05D-03

 Cycle   3  Pass 1  IDiag  3:
 E= 0.438112927563168E-01 Delta-E=       -0.000363260300 Rises=F Damp=F
 DIIS: error= 2.57D-04 at cycle   3 NSaved=   3.
 NSaved= 3 IEnMin= 3 EnMin= 0.438112927563168E-01 IErMin= 3 ErrMin= 2.57D-04
 ErrMax= 2.57D-04  0.00D+00 EMaxC= 1.00D-01 BMatC= 3.33D-06 BMatP= 6.01D-05
 IDIUse=3 WtCom= 9.97D-01 WtEn= 2.57D-03
 Coeff-Com:  0.253D+00-0.855D+00 0.160D+01
 Coeff-En:   0.000D+00 0.000D+00 0.100D+01
 Coeff:      0.252D+00-0.853D+00 0.160D+01
 Gap=     0.347 Goal=   None    Shift=    0.000
 RMSDP=3.87D-04 MaxDP=2.21D-03 DE=-3.63D-04 OVMax= 3.06D-03

 Cycle   4  Pass 1  IDiag  3:
 E= 0.437841081791674E-01 Delta-E=       -0.000027184577 Rises=F Damp=F
 DIIS: error= 9.68D-05 at cycle   4 NSaved=   4.
 NSaved= 4 IEnMin= 4 EnMin= 0.437841081791674E-01 IErMin= 4 ErrMin= 9.68D-05
 ErrMax= 9.68D-05  0.00D+00 EMaxC= 1.00D-01 BMatC= 1.78D-07 BMatP= 3.33D-06
 IDIUse=1 WtCom= 1.00D+00 WtEn= 0.00D+00
 Coeff-Com: -0.707D-01 0.254D+00-0.633D+00 0.145D+01
 Coeff:     -0.707D-01 0.254D+00-0.633D+00 0.145D+01
 Gap=     0.347 Goal=   None    Shift=    0.000
 RMSDP=9.94D-05 MaxDP=7.74D-04 DE=-2.72D-05 OVMax= 9.96D-04

 Cycle   5  Pass 1  IDiag  3:
 E= 0.437823665697152E-01 Delta-E=       -0.000001741609 Rises=F Damp=F
 DIIS: error= 3.32D-05 at cycle   5 NSaved=   5.
 NSaved= 5 IEnMin= 5 EnMin= 0.437823665697152E-01 IErMin= 5 ErrMin= 3.32D-05
 ErrMax= 3.32D-05  0.00D+00 EMaxC= 1.00D-01 BMatC= 1.76D-08 BMatP= 1.78D-07
 IDIUse=1 WtCom= 1.00D+00 WtEn= 0.00D+00
 Coeff-Com:  0.106D-01-0.412D-01 0.144D+00-0.672D+00 0.156D+01
 Coeff:      0.106D-01-0.412D-01 0.144D+00-0.672D+00 0.156D+01
 Gap=     0.347 Goal=   None    Shift=    0.000
 RMSDP=3.79D-05 MaxDP=3.18D-04 DE=-1.74D-06 OVMax= 4.11D-04

 Cycle   6  Pass 1  IDiag  3:
 E= 0.437821749657417E-01 Delta-E=       -0.000000191604 Rises=F Damp=F
 DIIS: error= 6.73D-06 at cycle   6 NSaved=   6.
 NSaved= 6 IEnMin= 6 EnMin= 0.437821749657417E-01 IErMin= 6 ErrMin= 6.73D-06
 ErrMax= 6.73D-06  0.00D+00 EMaxC= 1.00D-01 BMatC= 1.01D-09 BMatP= 1.76D-08
 IDIUse=1 WtCom= 1.00D+00 WtEn= 0.00D+00
 Coeff-Com: -0.197D-02 0.895D-02-0.463D-01 0.302D+00-0.884D+00 0.162D+01
 Coeff:     -0.197D-02 0.895D-02-0.463D-01 0.302D+00-0.884D+00 0.162D+01
 Gap=     0.347 Goal=   None    Shift=    0.000
 RMSDP=8.68D-06 MaxDP=7.09D-05 DE=-1.92D-07 OVMax= 1.01D-04

 Cycle   7  Pass 1  IDiag  3:
 E= 0.437821646148251E-01 Delta-E=       -0.000000010351 Rises=F Damp=F
 DIIS: error= 1.29D-06 at cycle   7 NSaved=   7.
 NSaved= 7 IEnMin= 7 EnMin= 0.437821646148251E-01 IErMin= 7 ErrMin= 1.29D-06
 ErrMax= 1.29D-06  0.00D+00 EMaxC= 1.00D-01 BMatC= 6.65D-11 BMatP= 1.01D-09
 IDIUse=1 WtCom= 1.00D+00 WtEn= 0.00D+00
 Coeff-Com:  0.919D-03-0.413D-02 0.215D-01-0.141D+00 0.426D+00-0.939D+00
 Coeff-Com:  0.164D+01
 Coeff:      0.919D-03-0.413D-02 0.215D-01-0.141D+00 0.426D+00-0.939D+00
 Coeff:      0.164D+01
 Gap=     0.347 Goal=   None    Shift=    0.000
 RMSDP=2.09D-06 MaxDP=1.46D-05 DE=-1.04D-08 OVMax= 2.26D-05

 Cycle   8  Pass 1  IDiag  3:
 E= 0.437821639947060E-01 Delta-E=       -0.000000000620 Rises=F Damp=F
 DIIS: error= 2.27D-07 at cycle   8 NSaved=   8.
 NSaved= 8 IEnMin= 8 EnMin= 0.437821639947060E-01 IErMin= 8 ErrMin= 2.27D-07
 ErrMax= 2.27D-07  0.00D+00 EMaxC= 1.00D-01 BMatC= 2.98D-12 BMatP= 6.65D-11
 IDIUse=1 WtCom= 1.00D+00 WtEn= 0.00D+00
 Coeff-Com: -0.251D-03 0.118D-02-0.673D-02 0.461D-01-0.141D+00 0.326D+00
 Coeff-Com: -0.706D+00 0.148D+01
 Coeff:     -0.251D-03 0.118D-02-0.673D-02 0.461D-01-0.141D+00 0.326D+00
 Coeff:     -0.706D+00 0.148D+01
 Gap=     0.347 Goal=   None    Shift=    0.000
 RMSDP=4.07D-07 MaxDP=2.49D-06 DE=-6.20D-10 OVMax= 4.12D-06

 Cycle   9  Pass 1  IDiag  3:
 E= 0.437821639687002E-01 Delta-E=       -0.000000000026 Rises=F Damp=F
 DIIS: error= 4.69D-08 at cycle   9 NSaved=   9.
 NSaved= 9 IEnMin= 9 EnMin= 0.437821639687002E-01 IErMin= 9 ErrMin= 4.69D-08
 ErrMax= 4.69D-08  0.00D+00 EMaxC= 1.00D-01 BMatC= 1.60D-13 BMatP= 2.98D-12
 IDIUse=1 WtCom= 1.00D+00 WtEn= 0.00D+00
 Coeff-Com:  0.392D-04-0.181D-03 0.100D-02-0.677D-02 0.208D-01-0.499D-01
 Coeff-Com:  0.131D+00-0.472D+00 0.138D+01
 Coeff:      0.392D-04-0.181D-03 0.100D-02-0.677D-02 0.208D-01-0.499D-01
 Coeff:      0.131D+00-0.472D+00 0.138D+01
 Gap=     0.347 Goal=   None    Shift=    0.000
 RMSDP=8.82D-08 MaxDP=4.25D-07 DE=-2.60D-11 OVMax= 7.10D-07

 Cycle  10  Pass 1  IDiag  3:
 E= 0.437821639672507E-01 Delta-E=       -0.000000000001 Rises=F Damp=F
 DIIS: error= 1.69D-08 at cycle  10 NSaved=  10.
 NSaved=10 IEnMin=10 EnMin= 0.437821639672507E-01 IErMin=10 ErrMin= 1.69D-08
 ErrMax= 1.69D-08  0.00D+00 EMaxC= 1.00D-01 BMatC= 1.12D-14 BMatP= 1.60D-13
 IDIUse=1 WtCom= 1.00D+00 WtEn= 0.00D+00
 Coeff-Com:  0.547D-05-0.237D-04 0.114D-03-0.719D-03 0.210D-02-0.393D-02
 Coeff-Com:  0.453D-03 0.651D-01-0.467D+00 0.140D+01
 Coeff:      0.547D-05-0.237D-04 0.114D-03-0.719D-03 0.210D-02-0.393D-02
 Coeff:      0.453D-03 0.651D-01-0.467D+00 0.140D+01
 Gap=     0.347 Goal=   None    Shift=    0.000
 RMSDP=2.42D-08 MaxDP=1.31D-07 DE=-1.45D-12 OVMax= 2.07D-07

 Cycle  11  Pass 1  IDiag  3:
 E= 0.437821639675775E-01 Delta-E=        0.000000000000 Rises=F Damp=F
 DIIS: error= 4.80D-09 at cycle  11 NSaved=  11.
 NSaved=11 IEnMin=10 EnMin= 0.437821639672507E-01 IErMin=11 ErrMin= 4.80D-09
 ErrMax= 4.80D-09  0.00D+00 EMaxC= 1.00D-01 BMatC= 1.02D-15 BMatP= 1.12D-14
 IDIUse=1 WtCom= 1.00D+00 WtEn= 0.00D+00
 Coeff-Com: -0.591D-05 0.269D-04-0.143D-03 0.948D-03-0.286D-02 0.614D-02
 Coeff-Com: -0.972D-02-0.927D-02 0.206D+00-0.888D+00 0.170D+01
 Coeff:     -0.591D-05 0.269D-04-0.143D-03 0.948D-03-0.286D-02 0.614D-02
 Coeff:     -0.972D-02-0.927D-02 0.206D+00-0.888D+00 0.170D+01
 Gap=     0.347 Goal=   None    Shift=    0.000
 RMSDP=8.43D-09 MaxDP=4.19D-08 DE= 3.27D-13 OVMax= 8.20D-08

 Cycle  12  Pass 2  IDiag  1:
 SCF Done:  E(RAM1) =  0.437821639676E-01 A.U. after   12 cycles
            NFock= 11  Conv=0.84D-08     -V/T= 1.0030
 KE=-1.453472723308D+01 PE=-1.555800138030D+02 EE= 7.651756801750D+01
 Leave Link  502 at Thu Mar 24 14:30:51 2016, MaxMem=    33554432 cpu:         0.0
 (Enter /opt/g09/g09/l701.exe)
 Compute integral first derivatives.
 ... and contract with generalized density number  0.
 Leave Link  701 at Thu Mar 24 14:30:51 2016, MaxMem=    33554432 cpu:         0.0
 (Enter /opt/g09/g09/l702.exe)
 L702 exits ... SP integral derivatives will be done elsewhere.
 Leave Link  702 at Thu Mar 24 14:30:51 2016, MaxMem=    33554432 cpu:         0.0
 (Enter /opt/g09/g09/l703.exe)
 Compute integral first derivatives, UseDBF=F ICtDFT=           0.
 Integral derivatives from FoFJK, PRISM(SPDF).
 Calling FoFJK, ICntrl=      2127 FMM=F ISym2X=0 I1Cent= 0 IOpClX= 0 NMat=1 NMatS=1 NMatT=0.
 FoFJK:  IHMeth= 8 ICntrl=    2127 DoSepK=F KAlg= 0 I1Cent=   0 FoldK=F
 IRaf=         0 NMat=   1 IRICut=       1 DoRegI=T DoRafI=F ISym2E= 0.
 FoFCou: FMM=F IPFlag=           0 FMFlag=      100000 FMFlg1=         800
         NFxFlg=           0 DoJE=F BraDBF=F KetDBF=F FulRan=T
         wScrn=  0.000000 ICntrl=    2127 IOpCl=  0 I1Cent=           0 NGrid=           0
         NMat0=    1 NMatS0=      1 NMatT0=    0 NMatD0=    1 NMtDS0=    0 NMtDT0=    0
 Symmetry not used in FoFCou.
 Leave Link  703 at Thu Mar 24 14:30:51 2016, MaxMem=    33554432 cpu:         0.0
 (Enter /opt/g09/g09/l716.exe)
 Dipole        = 1.20974237D-01-2.65862313D-04-2.33796450D-02
 ***** Axes restored to original set *****
 -------------------------------------------------------------------
 Center     Atomic                   Forces (Hartrees/Bohr)
 Number     Number              X              Y              Z
 -------------------------------------------------------------------
      1        6           0.003878115    0.000095139   -0.000506333
      2        6          -0.002120827   -0.000662731   -0.001980119
      3        6          -0.003557879    0.000671514   -0.000505371
      4        6           0.004197401   -0.001207410   -0.001369552
      5        1          -0.003272411   -0.002294380    0.001095972
      6        1           0.001699495   -0.000391037   -0.000000562
      7        1           0.001850001    0.001196259    0.000628269
      8        1          -0.003182081    0.002319958    0.001005321
      9       16           0.000508186    0.000272688    0.001632375
 -------------------------------------------------------------------
 Cartesian Forces:  Max     0.004197401 RMS     0.001957502
 Leave Link  716 at Thu Mar 24 14:30:51 2016, MaxMem=    33554432 cpu:         0.0
 (Enter /opt/g09/g09/l103.exe)

 GradGradGradGradGradGradGradGradGradGradGradGradGradGradGradGradGradGrad
 Berny optimization.
 Using GEDIIS/GDIIS optimizer.
 FormGI is forming the generalized inverse of G from B-inverse, IUseBI=4.
 Internal  Forces:  Max     0.004020959 RMS     0.001288318
 Search for a local minimum.
 Step number   3 out of a maximum of   48
 All quantities printed in internal units (Hartrees-Bohrs-Radians)
 RMS Force = .12883D-02 SwitMx=.10000D-02 MixMth= 1
 Mixed Optimization -- RFO/linear search
 Update second derivatives using D2CorX and points    1    2    3
 DE= -1.56D-03 DEPred=-1.84D-03 R= 8.47D-01
 TightC=F SS=  1.41D+00  RLast= 2.44D-01 DXNew= 8.4853D-01 7.3177D-01
 Trust test= 8.47D-01 RLast= 2.44D-01 DXMaxT set to 7.32D-01
 ITU=  1  1  0
 Use linear search instead of GDIIS.
     Eigenvalues ---    0.01588   0.01708   0.01865   0.02034   0.02136
     Eigenvalues ---    0.02323   0.15484   0.15994   0.16034   0.16562
     Eigenvalues ---    0.19975   0.22131   0.23458   0.28446   0.37107
     Eigenvalues ---    0.37230   0.37273   0.38821   0.41865   0.47900
     Eigenvalues ---    0.54863
 RFO step:  Lambda=-3.53618821D-04 EMin= 1.58802431D-02
 Quartic linear search produced a step of -0.08790.
 Iteration  1 RMS(Cart)=  0.01271318 RMS(Int)=  0.00027653
 Iteration  2 RMS(Cart)=  0.00022295 RMS(Int)=  0.00010346
 Iteration  3 RMS(Cart)=  0.00000004 RMS(Int)=  0.00010346
 ITry= 1 IFail=0 DXMaxC= 5.02D-02 DCOld= 1.00D+10 DXMaxT= 7.32D-01 DXLimC= 3.00D+00 Rises=F
 Variable       Old X    -DE/DX   Delta X   Delta X   Delta X     New X
                                 (Linear)    (Quad)   (Total)
    R1        2.59912   0.00005  -0.00299   0.00825   0.00529   2.60441
    R2        2.71399  -0.00322  -0.00096  -0.00557  -0.00650   2.70749
    R3        2.07334  -0.00397  -0.00091  -0.00888  -0.00979   2.06356
    R4        2.06081  -0.00166  -0.00130  -0.00202  -0.00332   2.05749
    R5        3.16328   0.00028   0.00472  -0.00576  -0.00104   3.16225
    R6        2.59705   0.00127  -0.00108   0.00440   0.00331   2.60035
    R7        2.05865  -0.00082  -0.00064  -0.00144  -0.00208   2.05657
    R8        3.16597  -0.00043   0.00457  -0.00721  -0.00267   3.16330
    R9        2.07338  -0.00402  -0.00043  -0.01009  -0.01052   2.06286
    A1        1.94784  -0.00003   0.00114  -0.00264  -0.00159   1.94624
    A2        2.18767   0.00022  -0.00217   0.00575   0.00357   2.19124
    A3        2.14753  -0.00018   0.00102  -0.00284  -0.00183   2.14570
    A4        2.21043  -0.00167  -0.00149  -0.00625  -0.00794   2.20249
    A5        1.94641   0.00037  -0.00053   0.00202   0.00116   1.94757
    A6        2.12604   0.00132   0.00179   0.00522   0.00681   2.13284
    A7        2.21225  -0.00146  -0.00010  -0.00967  -0.00969   2.20256
    A8        1.94787  -0.00025  -0.00171   0.00313   0.00128   1.94915
    A9        2.12304   0.00171   0.00157   0.00667   0.00832   2.13136
   A10        1.94545   0.00055   0.00195  -0.00133   0.00045   1.94590
   A11        2.14761  -0.00042  -0.00013  -0.00139  -0.00154   2.14607
   A12        2.18986  -0.00012  -0.00182   0.00320   0.00136   2.19122
   A13        1.63708  -0.00063  -0.00085  -0.00049  -0.00157   1.63551
    D1        3.12733   0.00056   0.00836   0.00911   0.01738  -3.13848
    D2        0.01228  -0.00063  -0.00096  -0.03334  -0.03433  -0.02205
    D3        0.00374   0.00015   0.00900  -0.00713   0.00179   0.00554
    D4       -3.11131  -0.00104  -0.00032  -0.04959  -0.04991   3.12196
    D5       -0.00328   0.00016   0.00053   0.00849   0.00900   0.00573
    D6       -3.12122  -0.00042   0.00056  -0.01306  -0.01244  -3.13367
    D7        3.12080   0.00056  -0.00014   0.02440   0.02418  -3.13821
    D8        0.00285  -0.00002  -0.00011   0.00285   0.00273   0.00558
    D9       -0.01419   0.00074   0.00090   0.03886   0.03979   0.02560
   D10       -3.13073  -0.00033  -0.00807  -0.00102  -0.00927  -3.14000
   D11       -3.14052  -0.00033  -0.00751   0.00301  -0.00443   3.13823
   D12       -0.02327   0.00027  -0.00751   0.02511   0.01764  -0.00563
   D13       -0.00717   0.00038   0.00014   0.02014   0.02030   0.01313
   D14        3.11008   0.00098   0.00014   0.04224   0.04237  -3.13073
   D15        0.01228  -0.00065  -0.00060  -0.03392  -0.03455  -0.02227
   D16       -3.13707   0.00000   0.00668  -0.01789  -0.01109   3.13503
         Item               Value     Threshold  Converged?
 Maximum Force            0.004021     0.000450     NO 
 RMS     Force            0.001288     0.000300     NO 
 Maximum Displacement     0.050157     0.001800     NO 
 RMS     Displacement     0.012705     0.001200     NO 
 Predicted change in Energy=-1.934267D-04
 Lowest energy point so far.  Saving SCF results.
 GradGradGradGradGradGradGradGradGradGradGradGradGradGradGradGradGradGrad

 Leave Link  103 at Thu Mar 24 14:30:51 2016, MaxMem=    33554432 cpu:         0.0
 (Enter /opt/g09/g09/l202.exe)
                          Input orientation:                          
 ---------------------------------------------------------------------
 Center     Atomic      Atomic             Coordinates (Angstroms)
 Number     Number       Type             X           Y           Z
 ---------------------------------------------------------------------
      1          6           0        0.889332   -0.692807   -0.010908
      2          6           0       -0.395434   -1.191488   -0.000184
      3          6           0       -0.380292    1.250256    0.047574
      4          6           0        0.897069    0.739716    0.012824
      5          1           0        1.815940    1.328935    0.001765
      6          1           0       -0.650752    2.304083    0.073655
      7          1           0       -0.677003   -2.243172   -0.010782
      8          1           0        1.802420   -1.291179   -0.036540
      9         16           0       -1.531411    0.035160    0.071376
 ---------------------------------------------------------------------
                    Distance matrix (angstroms):
                    1          2          3          4          5
     1  C    0.000000
     2  C    1.378195   0.000000
     3  C    2.321823   2.442259   0.000000
     4  C    1.432741   2.323851   1.376048   0.000000
     5  H    2.224007   3.353015   2.198118   1.091616   0.000000
     6  H    3.370514   3.505661   1.088292   2.201521   2.653423
     7  H    2.203868   1.088776   3.506492   3.372815   4.356016
     8  H    1.091987   2.200414   3.351149   2.224103   2.620429
     9  S    2.529170   1.673388   1.673948   2.529297   3.589354
                    6          7          8          9
     6  H    0.000000
     7  H    4.548115   0.000000
     8  H    4.353861   2.656029   0.000000
     9  S    2.433841   2.434658   3.589603   0.000000
 Stoichiometry    C4H4S
 Framework group  C1[X(C4H4S)]
 Deg. of freedom    21
 Full point group                 C1      NOp   1
 RotChk:  IX=2 Diff= 1.61D-02
[...]
     23  0.000000D+00  0.000000D+00  0.463871D-05  0.000000D+00  0.421389D-05
     24  0.678787D-05  0.000000D+00  0.345950D-05  0.140577D-05  0.000000D+00
     25  0.450228D-05  0.000000D+00 -0.125258D-05  0.000000D+00  0.279604D-05
     26  0.122465D-04  0.000000D+00 -0.243179D-05  0.130557D-05  0.000000D+00
     27  0.765600D-05  0.000000D+00 -0.226155D-05  0.000000D+00  0.000000D+00
     28  0.101090D-04  0.000000D+00 -0.615034D-05  0.112629D-05 -0.433252D-05
     29  0.229459D-05  0.000000D+00  0.292126D-05  0.000000D+00  0.142098D-05
     30  0.474762D-05  0.000000D+00  0.000000D+00  0.126576D-05 -0.260939D-05
     31  0.459641D-05  0.000000D+00 -0.182271D-05  0.000000D+00  0.359393D-05
     32  0.118423D-04  0.000000D+00 -0.237262D-05  0.106645D-05  0.000000D+00
     33 -0.390452D-05  0.000000D+00  0.000000D+00  0.000000D+00 -0.386330D-05
     34  0.356723D-05  0.000000D+00  0.216538D-05 -0.141333D-05  0.000000D+00
     35 -0.476196D-05  0.000000D+00  0.000000D+00  0.000000D+00 -0.570428D-05
     36  0.270979D-05  0.000000D+00  0.000000D+00  0.000000D+00  0.000000D+00
     37  0.216364D-05  0.000000D+00  0.299160D-05 -0.163582D-05  0.000000D+00
     38  0.265416D-05  0.000000D+00  0.000000D+00 -0.104790D-05 -0.276356D-05
               11            12            13            14            15 
     11  0.736323D-01
     12 -0.340345D-01  0.738886D-01
     13 -0.102122D-01 -0.113146D-01  0.713458D-01
     14  0.188976D-01  0.215204D-01 -0.471812D-01  0.852857D-01
     15 -0.868547D-02 -0.102058D-01 -0.241645D-01 -0.381045D-01  0.622691D-01
     16 -0.163926D-02  0.391321D-02  0.126022D-02 -0.306456D-02  0.180434D-02
     17  0.611751D-02 -0.384460D-02 -0.306356D-02  0.854211D-02 -0.547855D-02
     18 -0.447825D-02 -0.686031D-04  0.180334D-02 -0.547755D-02  0.367421D-02
     19  0.220419D-01  0.211330D-01 -0.227213D-02 -0.227826D-02  0.455039D-02
     20 -0.111314D-01 -0.999988D-02  0.391243D-02 -0.384249D-02 -0.699368D-04
     21 -0.109105D-01 -0.111331D-01 -0.164030D-02  0.612075D-02 -0.448045D-02
     22 -0.745918D-02  0.104532D-02  0.309902D-01 -0.511316D-01  0.201414D-01
     23  0.000000D+00 -0.430772D-05  0.537289D-05 -0.363092D-05 -0.333419D-05
     24 -0.115143D-05  0.000000D+00  0.114068D-05  0.273469D-05 -0.160219D-05
     25 -0.387292D-05  0.214226D-05  0.215461D-05 -0.167748D-05 -0.250603D-05
     26 -0.437861D-05  0.569144D-05 -0.207760D-05  0.468814D-05  0.000000D+00
     27  0.204260D-05  0.000000D+00 -0.192140D-05  0.328544D-05 -0.243451D-05
     28  0.526196D-05  0.000000D+00 -0.382439D-05  0.477359D-05 -0.149021D-05
     29 -0.670008D-05  0.469445D-05  0.119122D-05  0.148060D-05 -0.331734D-05
     30 -0.348072D-05  0.515405D-05  0.000000D+00  0.296875D-05 -0.237304D-05
     31 -0.154245D-05 -0.147050D-05 -0.164998D-05 -0.215361D-05  0.152987D-05
     32 -0.238196D-05  0.164233D-05  0.765525D-05  0.210904D-05 -0.830582D-05
     33  0.242992D-05  0.112758D-05  0.000000D+00  0.000000D+00  0.000000D+00
     34 -0.102932D-05  0.000000D+00  0.000000D+00  0.000000D+00 -0.149535D-05
     35  0.179448D-05  0.317122D-05 -0.252273D-05  0.168452D-05  0.000000D+00
     36 -0.166476D-05  0.227230D-05 -0.170941D-05  0.226149D-05 -0.170140D-05
     37  0.158575D-05  0.000000D+00  0.209309D-05  0.000000D+00 -0.131641D-05
     38  0.104223D-05  0.140967D-05  0.000000D+00  0.234866D-05 -0.155927D-05
               16            17            18            19            20 
     16  0.713612D-01
     17 -0.471920D-01  0.852970D-01
     18 -0.241692D-01 -0.381050D-01  0.622742D-01
     19  0.215268D-01 -0.404157D-01  0.188889D-01  0.794503D-01
     20 -0.113146D-01  0.215187D-01 -0.102041D-01 -0.398508D-01  0.738853D-01
     21 -0.102122D-01  0.188970D-01 -0.868484D-02 -0.395995D-01 -0.340345D-01
     22  0.310037D-01 -0.511505D-01  0.201468D-01  0.641860D-02  0.104336D-02
     23  0.000000D+00  0.000000D+00  0.000000D+00 -0.302022D-05  0.293794D-05
     24 -0.158842D-05  0.225880D-05  0.000000D+00 -0.409726D-05  0.000000D+00
     25  0.000000D+00  0.000000D+00  0.000000D+00 -0.158055D-05  0.000000D+00
     26 -0.109018D-05  0.189401D-05 -0.103979D-05 -0.265759D-05 -0.324360D-05
     27 -0.213580D-05  0.426345D-05 -0.234742D-05 -0.323049D-05  0.178961D-05
     28  0.000000D+00  0.000000D+00 -0.126110D-05  0.199688D-05 -0.113239D-04
     29 -0.202799D-05  0.352542D-05 -0.160858D-05 -0.493196D-05  0.540892D-05
     30  0.000000D+00  0.000000D+00  0.000000D+00  0.000000D+00 -0.770460D-05
     31  0.211140D-05 -0.208552D-05  0.000000D+00  0.000000D+00  0.135261D-05
     32  0.000000D+00  0.000000D+00  0.000000D+00 -0.247515D-05  0.000000D+00
     33  0.000000D+00  0.000000D+00  0.000000D+00  0.471384D-05  0.174489D-05
     34 -0.155537D-05  0.228329D-05 -0.114441D-05 -0.131689D-05 -0.701485D-05
     35  0.000000D+00  0.198826D-05 -0.151617D-05  0.327105D-05 -0.125669D-05
     36 -0.229537D-05  0.515613D-05 -0.248367D-05 -0.275968D-05 -0.100164D-04
     37  0.000000D+00 -0.145786D-05  0.104006D-05  0.308901D-05 -0.315430D-05
     38  0.198601D-05  0.000000D+00 -0.261610D-05  0.183237D-05 -0.611711D-05
               21            22            23            24            25 
     21  0.736340D-01
     22 -0.746196D-02  0.894496D-01
     23  0.000000D+00  0.217652D-05  0.839961D-02
     24  0.523398D-05 -0.290921D-05 -0.140391D-03  0.120520D-01
     25  0.202956D-05  0.180953D-05  0.341716D-02 -0.746502D-02  0.105946D-01
     26  0.660877D-05 -0.327620D-05 -0.512284D-02  0.472739D-02 -0.287595D-03
     27  0.000000D+00 -0.218061D-05 -0.296322D-02 -0.870478D-02  0.493120D-02
     28  0.104232D-04 -0.291508D-05 -0.961242D-03 -0.386295D-02  0.456575D-02
     29 -0.201474D-05  0.000000D+00  0.188537D-02 -0.157695D-02 -0.205338D-02
     30  0.916419D-05 -0.160395D-05  0.388735D-02  0.326488D-02 -0.241883D-02
     31 -0.103045D-05  0.137820D-05  0.246591D-02 -0.972938D-02  0.637992D-02
     32  0.373228D-05 -0.166506D-05 -0.577977D-02  0.204283D-02 -0.412722D-02
     33 -0.507281D-05  0.000000D+00  0.729179D-03  0.475922D-02 -0.133099D-02
     34  0.633432D-05 -0.163365D-05 -0.132785D-02 -0.215745D-03 -0.955490D-03
     35  0.000000D+00 -0.290946D-05  0.475752D-02  0.151098D-02 -0.218314D-03
     36  0.114308D-04 -0.399276D-05  0.270049D-02 -0.346398D-02  0.157182D-03
     37 -0.102384D-05  0.000000D+00 -0.420421D-02  0.462504D-02 -0.348845D-02
     38  0.382525D-05 -0.273187D-05 -0.314422D-03  0.148852D-02 -0.241404D-02
               26            27            28            29            30 
     26  0.956263D-02
     27 -0.810358D-03  0.111736D-01
     28  0.166404D-02  0.349214D-02  0.732565D-02
     29 -0.551570D-02  0.349127D-02 -0.188636D-02  0.732420D-02
     30 -0.304130D-02 -0.419018D-02  0.194714D-02  0.194657D-02  0.808389D-02
     31 -0.581538D-02  0.327613D-02  0.257956D-02 -0.532715D-03 -0.122928D-02
     32  0.369538D-02 -0.226756D-02 -0.222150D-03 -0.387571D-02 -0.183030D-02
     33  0.269905D-02 -0.296399D-02  0.188261D-02 -0.959173D-03  0.388742D-02
     34  0.156615D-03  0.492869D-02 -0.205630D-02  0.456633D-02 -0.241866D-02
     35 -0.346485D-02 -0.870507D-02 -0.157821D-02 -0.386292D-02  0.326394D-02
     36 -0.600729D-02 -0.812392D-03 -0.551712D-02  0.166259D-02 -0.304214D-02
     37  0.534080D-02  0.327702D-02 -0.531662D-03  0.258049D-02 -0.122820D-02
     38 -0.611102D-03 -0.226660D-02 -0.387345D-02 -0.223387D-03 -0.183024D-02
               31            32            33            34            35 
     31  0.107339D-01
     32 -0.104109D-02  0.651192D-02
     33 -0.420548D-02 -0.314327D-03  0.839625D-02
     34 -0.348976D-02 -0.241598D-02  0.341638D-02  0.105934D-01
     35  0.462495D-02  0.149030D-02 -0.141021D-03 -0.746386D-02  0.120527D-01
     36  0.534067D-02 -0.611353D-03 -0.512089D-02 -0.286793D-03  0.472990D-02
     37 -0.881372D-02 -0.288751D-03  0.246755D-02  0.638097D-02 -0.973124D-02
     38 -0.287002D-03  0.145381D-02 -0.577609D-02 -0.412505D-02  0.204313D-02
               36            37            38 
     36  0.956400D-02
     37 -0.581782D-02  0.107369D-01
     38  0.369416D-02 -0.104237D-02  0.650791D-02
 Leave Link  716 at Thu Mar 24 14:30:52 2016, MaxMem=    33554432 cpu:         0.0
 (Enter /opt/g09/g09/l103.exe)

 GradGradGradGradGradGradGradGradGradGradGradGradGradGradGradGradGradGrad
 Berny optimization.
 Red2BG is reusing G-inverse.
 Internal  Forces:  Max     0.053982053 RMS     0.014823983
 Search for a local minimum.
 Step number   1 out of a maximum of    2
 All quantities printed in internal units (Hartrees-Bohrs-Radians)
 Second derivative matrix not updated -- analytic derivatives used.
 ITU=  0
     Eigenvalues ---   -0.10582   0.00906   0.00983   0.02257   0.02347
     Eigenvalues ---    0.03807   0.04662   0.08172   0.09364   0.10152
     Eigenvalues ---    0.10613   0.20617   0.21117   0.21345   0.35988
     Eigenvalues ---    0.36801   0.37796   0.37977   0.46333   0.47436
     Eigenvalues ---    0.74085
 Eigenvalue     1 is  -1.06D-01 should be greater than     0.000000 Eigenvector:
                          R8        R5        R6        R1        A7
   1                    0.64807  -0.64781  -0.21967   0.21899   0.11700
                          A4        A12       A2        A1        A10
   1                   -0.11687   0.07833  -0.07813   0.06942  -0.06941
 Quadratic step=3.844D-01 exceeds max=3.000D-01 adjusted using Lamda=-3.640D-02.
 Angle between NR and scaled steps=   6.93 degrees.
 Angle between quadratic step and forces=  34.56 degrees.
 Linear search not attempted -- first point.
 Iteration  1 RMS(Cart)=  0.02967069 RMS(Int)=  0.00106447
 Iteration  2 RMS(Cart)=  0.00132607 RMS(Int)=  0.00051679
 Iteration  3 RMS(Cart)=  0.00000066 RMS(Int)=  0.00051679
 ITry= 1 IFail=0 DXMaxC= 8.50D-02 DCOld= 1.00D+10 DXMaxT= 3.00D-01 DXLimC= 3.00D+00 Rises=F
 Variable       Old X    -DE/DX   Delta X   Delta X   Delta X     New X
                                 (Linear)    (Quad)   (Total)
    R1        2.60244   0.05389   0.00000   0.10684   0.10652   2.70896
    R2        2.70667  -0.03816   0.00000  -0.11437  -0.11522   2.59146
    R3        2.06269   0.00148   0.00000   0.00327   0.00327   2.06596
    R4        2.05647   0.00250   0.00000   0.00007   0.00007   2.05654
    R5        3.16041  -0.01209   0.00000  -0.08853  -0.08790   3.07251
    R6        2.60220   0.05398   0.00000   0.10714   0.10681   2.70901
    R7        2.05641   0.00253   0.00000   0.00012   0.00012   2.05653
    R8        3.16050  -0.01206   0.00000  -0.08874  -0.08810   3.07240
    R9        2.06272   0.00146   0.00000   0.00326   0.00326   2.06598
    A1        1.94653   0.00341   0.00000   0.01743   0.01623   1.96276
    A2        2.18833  -0.00171   0.00000  -0.03927  -0.03867   2.14967
    A3        2.14832  -0.00171   0.00000   0.02184   0.02244   2.17076
    A4        2.19384   0.00222   0.00000  -0.03485  -0.03495   2.15889
    A5        1.94706  -0.01164   0.00000  -0.05874  -0.05854   1.88852
    A6        2.14229   0.00942   0.00000   0.09359   0.09349   2.23578
    A7        2.19372   0.00226   0.00000  -0.03465  -0.03476   2.15896
    A8        1.94720  -0.01169   0.00000  -0.05890  -0.05870   1.88851
    A9        2.14227   0.00943   0.00000   0.09356   0.09345   2.23572
   A10        1.94641   0.00342   0.00000   0.01759   0.01639   1.96281
   A11        2.14846  -0.00173   0.00000   0.02168   0.02228   2.17074
   A12        2.18831  -0.00170   0.00000  -0.03927  -0.03867   2.14964
   A13        1.63757   0.01650   0.00000   0.08262   0.08462   1.72219
    D1       -3.14127  -0.00001   0.00000  -0.00013  -0.00013  -3.14139
    D2        0.00012   0.00000   0.00000  -0.00004  -0.00004   0.00008
    D3        0.00016   0.00000   0.00000  -0.00003  -0.00003   0.00013
    D4        3.14155   0.00001   0.00000   0.00006   0.00006  -3.14158
    D5       -0.00017   0.00000   0.00000   0.00006   0.00006  -0.00011
    D6        3.14112   0.00001   0.00000   0.00015   0.00015   3.14127
    D7        3.14158   0.00000   0.00000  -0.00003  -0.00003   3.14155
    D8       -0.00031   0.00000   0.00000   0.00006   0.00006  -0.00025
    D9       -0.00003   0.00000   0.00000   0.00001   0.00001  -0.00002
   D10        3.14137   0.00000   0.00000   0.00008   0.00008   3.14145
   D11       -3.14140   0.00000   0.00000  -0.00003  -0.00003  -3.14143
   D12        0.00050  -0.00001   0.00000  -0.00014  -0.00013   0.00037
   D13        0.00015   0.00000   0.00000  -0.00006  -0.00006   0.00010
   D14       -3.14113  -0.00001   0.00000  -0.00016  -0.00016  -3.14129
   D15       -0.00008   0.00000   0.00000   0.00003   0.00003  -0.00004
   D16        3.14148   0.00000   0.00000   0.00000   0.00000   3.14148
         Item               Value     Threshold  Converged?
 Maximum Force            0.053982     0.000450     NO 
 RMS     Force            0.014824     0.000300     NO 
 Maximum Displacement     0.084980     0.001800     NO 
 RMS     Displacement     0.029206     0.001200     NO 
 Predicted change in Energy=-1.292764D-02
 GradGradGradGradGradGradGradGradGradGradGradGradGradGradGradGradGradGrad

 Leave Link  103 at Thu Mar 24 14:30:52 2016, MaxMem=    33554432 cpu:         0.0
 (Enter /opt/g09/g09/l9999.exe)
 1\1\GINC-LINUX-CBNE\Freq\RAM1-Full\STO-3G\C4H4S1\DUSTIN\24-Mar-2016\0\
 \#P AM1(Input,Print) CIS(Singlets,NStates=10) pop(full) Geom=Checkpoin
 t freq\\Thiophene\\0,1\C,0.8871194298,-0.6929180922,-0.0123622128\C,-0
 .396390782,-1.1916460952,0.0081527372\C,-0.3828483349,1.250749987,0.05
 17663209\C,0.8950281138,0.7391389102,0.0133406249\H,1.8125033714,1.330
 4161385,0.0033518417\H,-0.6433369587,2.3070247928,0.0766328977\H,-0.66
 85258914,-2.2452360016,-0.0043432981\H,1.79807968,-1.2934065179,-0.044
 0285725\S,-1.5317595482,0.0353802283,0.0562710209\\Version=ES64L-G09Re
 vD.01\State=1-A\HF=0.0435976\RMSD=3.467e-09\RMSF=2.989e-02\ZeroPoint=0
 .0643834\Thermal=0.0688008\Dipole=0.5331955,-0.0031536,-0.0121039\Dipo
 leDeriv=-0.4905649,-0.7645908,-0.0085073,-0.5519887,-0.6928374,0.00461
 91,-0.0045387,0.0095545,-0.2539784,0.7823947,1.6897954,0.0125251,-0.29
 86596,-0.312978,0.0014397,-0.0236026,-0.0442298,-0.0101777,0.7648348,-
 1.7037855,-0.0487189,0.2861007,-0.29804,-0.011724,-0.0126347,0.0337788
 ,-0.0090249,-0.476128,0.7649161,0.0190622,0.5488997,-0.7110795,-0.0208
 467,0.0150189,-0.0256676,-0.2556372,0.1530027,0.0941561,0.0024317,0.05
 53035,0.1344195,-0.0021809,0.0017185,-0.0029792,0.184681,0.062866,-0.0
 574717,0.001514,-0.0167065,0.2356347,0.0014782,0.0022518,0.0023603,0.1
 742155,0.0636814,0.0592649,0.0036074,0.0185728,0.2348695,0.0006538,0.0
 028856,-0.0002921,0.1740826,0.1513672,-0.094421,-0.0009435,-0.055448,0
 .1358997,0.0003949,-0.0002494,0.0013319,0.1847793,-1.0114533,0.0121362
 ,0.0190293,0.0139262,1.274114,0.026166,0.0191506,0.0261423,-0.1889408\
 Polar=65.065086,0.0705967,72.9710957,-1.2144081,1.0956796,12.0547891\P
 G=C01 [X(C4H4S1)]\NImag=1\\0.85436036,-0.05927210,0.65963521,-0.017709
 00,0.01090216,0.13024933,-0.37499674,-0.03363450,0.00690416,0.40152533
 ,-0.18979421,-0.12501669,0.00300451,0.27136780,0.61819237,0.00407488,-
 0.00057695,-0.04952319,-0.00184456,0.00286163,0.10975434,-0.08977957,0
 .01141774,0.00242696,0.20557073,-0.03639561,-0.00517722,0.39514366,0.0
 5467300,-0.06458305,-0.00255708,0.03320223,-0.08593134,-0.00245417,-0.
 26880549,0.62375360,0.00321979,-0.00156094,0.00754517,-0.00392998,-0.0
 0085668,0.00831732,-0.01133678,0.01537771,0.11015649,-0.04994790,-0.00
 349862,-0.00074753,-0.09079132,-0.05436185,0.00127734,-0.37228517,0.19
 239191,0.01083315,0.85560897,-0.00017240,-0.37548677,-0.00534870,-0.01
 068879,-0.06398112,-0.00104729,0.03542723,-0.12734810,-0.00220845,0.05
 798886,0.65797348,-0.00068643,-0.00527438,-0.07980688,0.00206590,-0.00
 004851,0.00760538,0.00800172,-0.00579845,-0.04968050,-0.01547249,0.008
 25258,0.13010840,0.00284743,-0.00378404,0.00000567,-0.00506522,0.00005
 775,0.00021823,-0.03571349,-0.01201456,0.00075426,-0.24198884,-0.13048
 865,0.00220762,0.27854454,-0.02250490,-0.02303989,-0.00001885,-0.00629
 323,-0.00286003,0.00001138,0.01317882,0.00860206,-0.00027337,-0.133291
 64,-0.12179418,0.00151919,0.14705489,0.14453299,-0.00032536,-0.0004309
 0,0.00616608,0.00008779,-0.00013541,0.00447720,0.00122305,0.00029984,0
 .00705519,0.00214980,0.00145381,-0.03954087,-0.00315529,-0.00108490,0.
 02115327,-0.00496599,-0.00042348,0.00021095,0.00151811,0.00043738,-0.0
 0000914,-0.04490655,0.06287774,0.00118174,-0.01295133,0.03281622,0.001
 13473,0.00042754,0.00010115,-0.00002693,0.06238791,0.00169132,0.000776
 62,-0.00010747,-0.00328147,0.00218888,0.00010146,0.07545715,-0.3182471
 2,-0.00666384,0.00975510,-0.01432165,-0.00067604,0.00012995,0.00030518
 ,0.00001806,-0.08020941,0.35365693,0.00024573,-0.00006214,0.00459876,-
 0.00007237,0.00001696,0.00076524,0.00140461,-0.00637581,-0.04258009,0.
 00072330,-0.00120357,0.01089150,-0.00002663,0.00001884,-0.00085256,-0.
 00243188,0.00782949,0.01907058,-0.01341916,-0.03284660,-0.00002691,-0.
 04646286,-0.06586582,-0.00107962,0.00154663,-0.00043041,-0.00002546,-0
 .00498074,0.00048575,0.00022827,0.00001560,-0.00043097,-0.00003618,0.0
 0017990,0.00023520,-0.00003061,0.06418994,-0.00978535,-0.01388829,-0.0
 0021814,-0.07842443,-0.31675542,-0.00308122,0.00327846,0.00215609,-0.0
 0004974,-0.00163190,0.00078578,-0.00003062,0.00003753,-0.00040740,0.00
 001314,-0.00024168,-0.00051138,0.00002033,0.08341391,0.35193385,0.0003
 8484,0.00031561,0.01091622,-0.00131054,-0.00336750,-0.04246898,0.00004
 359,0.00003658,0.00077217,0.00019165,-0.00008060,0.00458904,-0.0000269
 6,0.00002472,-0.00119833,-0.00003921,0.00000958,-0.00134037,0.00044415
 ,0.00401555,0.01895208,-0.23910425,0.13163080,0.00693980,-0.03571292,0
 .01246192,0.00120598,-0.00500917,-0.00004083,0.00021641,0.00314299,0.0
 0348007,0.00013225,0.00044665,0.00013028,-0.00001888,0.00001967,-0.000
 04095,-0.00002881,0.00042536,-0.00013005,-0.00003177,0.27532237,0.1344
 1380,-0.12448666,-0.00460729,-0.01272317,0.00860900,0.00031929,0.00631
 928,-0.00292712,-0.00027863,0.02220552,-0.02329007,-0.00104037,-0.0001
 3912,-0.00043925,0.00000391,0.00042763,-0.00041164,0.00000475,-0.00010
 116,0.00030793,0.00002309,-0.14828695,0.14752461,0.00698995,-0.0045448
 2,-0.03975917,0.00074854,-0.00025687,0.00705564,0.00033789,-0.00013410
 ,0.00447323,0.00046720,-0.00060480,0.00615663,-0.00002416,-0.00000196,
 -0.00049874,-0.00001999,0.00001496,-0.00120232,-0.00003141,0.00002391,
 -0.00085015,-0.00849310,0.00567297,0.02138775,-0.08499447,-0.00958945,
 0.00199590,-0.05558466,0.06209272,0.00133410,-0.05456669,-0.06185370,-
 0.00091311,-0.08580693,0.01115195,0.00238843,0.00048578,0.00205562,0.0
 0010201,-0.00170929,-0.00373685,0.00021667,-0.00149471,0.00348348,0.00
 034425,0.00046929,-0.00211584,0.00002508,0.28320144,0.09075101,0.06608
 957,-0.00104914,-0.15952497,-0.03444558,0.00386587,0.16012295,-0.03547
 496,-0.00348608,-0.08955754,0.06746267,0.00309660,-0.00085373,-0.00489
 954,-0.00013757,-0.01578557,-0.02343576,-0.00024885,0.01554012,-0.0236
 2110,-0.00097704,0.00079571,-0.00488685,-0.00016930,-0.00148794,-0.006
 78868,0.00380555,0.00123231,0.00961357,-0.00264882,-0.00121818,-0.0459
 8238,0.00307606,0.00160543,-0.04605842,0.00057764,0.00078699,0.0096771
 7,0.00004727,-0.00019505,0.00323886,-0.00000027,-0.00052620,0.01064912
 ,0.00055776,-0.00069320,0.01062819,0.00007813,-0.00009773,0.00323723,-
 0.00549333,-0.00089436,0.04499585\\-0.04658458,-0.06527588,-0.00011838
 ,0.06728998,0.02221908,-0.00115214,0.06708140,-0.02297838,-0.00194608,
 -0.04590848,0.06579027,0.00222555,-0.00123764,-0.00078051,0.00002744,-
 0.00278087,-0.00329374,0.00000111,-0.00276537,0.00329323,0.00012929,-0
 .00123115,0.00081272,0.00004596,-0.03386329,0.00021321,0.00078725\\\@


 IF IT'S NOT TRUE, IT'S WELL INVENTED -- DANTE
 Job cpu time:       0 days  0 hours  0 minutes  0.5 seconds.
 File lengths (MBytes):  RWF=      6 Int=      0 D2E=      0 Chk=      2 Scr=      1
 Normal termination of Gaussian 09 at Thu Mar 24 14:30:52 2016.
