 Entering Gaussian System, Link 0=g09
 Input=ThiopheneDFT.com
 Output=ThiopheneExcited.log
 Initial command:
 /home/dustin/Applications/g09/g09/l1.exe "/tmp/Gau-20646.inp" -scrdir="/tmp/"
 Entering Link 1 = /home/dustin/Applications/g09/g09/l1.exe PID=     20648.
  
 Copyright (c) 1988,1990,1992,1993,1995,1998,2003,2009,2013,
            Gaussian, Inc.  All Rights Reserved.
  
 This is part of the Gaussian(R) 09 program.  It is based on
 the Gaussian(R) 03 system (copyright 2003, Gaussian, Inc.),
 the Gaussian(R) 98 system (copyright 1998, Gaussian, Inc.),
 the Gaussian(R) 94 system (copyright 1995, Gaussian, Inc.),
 the Gaussian 92(TM) system (copyright 1992, Gaussian, Inc.),
 the Gaussian 90(TM) system (copyright 1990, Gaussian, Inc.),
 the Gaussian 88(TM) system (copyright 1988, Gaussian, Inc.),
 the Gaussian 86(TM) system (copyright 1986, Carnegie Mellon
 University), and the Gaussian 82(TM) system (copyright 1983,
 Carnegie Mellon University). Gaussian is a federally registered
 trademark of Gaussian, Inc.
  
 This software contains proprietary and confidential information,
 including trade secrets, belonging to Gaussian, Inc.
  
 This software is provided under written license and may be
 used, copied, transmitted, or stored only in accord with that
 written license.
  
 The following legend is applicable only to US Government
 contracts under FAR:
  
                    RESTRICTED RIGHTS LEGEND
  
 Use, reproduction and disclosure by the US Government is
 subject to restrictions as set forth in subparagraphs (a)
 and (c) of the Commercial Computer Software - Restricted
 Rights clause in FAR 52.227-19.
  
 Gaussian, Inc.
 340 Quinnipiac St., Bldg. 40, Wallingford CT 06492
  
  
 ---------------------------------------------------------------
 Warning -- This program may not be used in any manner that
 competes with the business of Gaussian, Inc. or will provide
 assistance to any competitor of Gaussian, Inc.  The licensee
 of this program is prohibited from giving any competitor of
 Gaussian, Inc. access to this program.  By using this program,
 the user acknowledges that Gaussian, Inc. is engaged in the
 business of creating and licensing software in the field of
 computational chemistry and represents and warrants to the
 licensee that it is not a competitor of Gaussian, Inc. and that
 it will not use this program in any manner prohibited above.
 ---------------------------------------------------------------
  

 Cite this work as:
 Gaussian 09, Revision D.01,
 M. J. Frisch, G. W. Trucks, H. B. Schlegel, G. E. Scuseria, 
 M. A. Robb, J. R. Cheeseman, G. Scalmani, V. Barone, B. Mennucci, 
 G. A. Petersson, H. Nakatsuji, M. Caricato, X. Li, H. P. Hratchian, 
 A. F. Izmaylov, J. Bloino, G. Zheng, J. L. Sonnenberg, M. Hada, 
 M. Ehara, K. Toyota, R. Fukuda, J. Hasegawa, M. Ishida, T. Nakajima, 
 Y. Honda, O. Kitao, H. Nakai, T. Vreven, J. A. Montgomery, Jr., 
 J. E. Peralta, F. Ogliaro, M. Bearpark, J. J. Heyd, E. Brothers, 
 K. N. Kudin, V. N. Staroverov, T. Keith, R. Kobayashi, J. Normand, 
 K. Raghavachari, A. Rendell, J. C. Burant, S. S. Iyengar, J. Tomasi, 
 M. Cossi, N. Rega, J. M. Millam, M. Klene, J. E. Knox, J. B. Cross, 
 V. Bakken, C. Adamo, J. Jaramillo, R. Gomperts, R. E. Stratmann, 
 O. Yazyev, A. J. Austin, R. Cammi, C. Pomelli, J. W. Ochterski, 
 R. L. Martin, K. Morokuma, V. G. Zakrzewski, G. A. Voth, 
 P. Salvador, J. J. Dannenberg, S. Dapprich, A. D. Daniels, 
 O. Farkas, J. B. Foresman, J. V. Ortiz, J. Cioslowski, 
 and D. J. Fox, Gaussian, Inc., Wallingford CT, 2013.
 
 ******************************************
 Gaussian 09:  ES64L-G09RevD.01 24-Apr-2013
                 5-Apr-2016 
 ******************************************
 %Chk=freq
 ------------------
 #P B3LYP/3-21G opt
 ------------------
 1/14=-1,18=20,19=15,26=3,38=1/1,3;
 2/9=110,12=2,17=6,18=5,40=1/2;
 3/5=5,11=2,16=1,25=1,30=1,71=1,74=-5/1,2,3;
 4//1;
 5/5=2,38=5/2;
 6/7=2,8=2,9=2,10=2,28=1/1;
 7//1,2,3,16;
 1/14=-1,18=20,19=15,26=3/3(2);
 2/9=110/2;
 99//99;
 2/9=110/2;
 3/5=5,11=2,16=1,25=1,30=1,71=1,74=-5/1,2,3;
 4/5=5,16=3,69=1/1;
 5/5=2,38=5/2;
 7//1,2,3,16;
 1/14=-1,18=20,19=15,26=3/3(-5);
 2/9=110/2;
 6/7=2,8=2,9=2,10=2,19=2,28=1/1;
 99/9=1/99;
 Leave Link    1 at Tue Apr  5 13:38:17 2016, MaxMem=           0 cpu:         0.0
 (Enter /home/dustin/Applications/g09/g09/l101.exe)
 ---------
 Thiophene
 ---------
 Symbolic Z-matrix:
 Charge =  0 Multiplicity = 1
 C                     0.88921  -0.68321  -0.02963 
 C                    -0.40237  -1.23805   0.01377 
 C                    -0.36698   1.28288   0.05755 
 C                     0.8856    0.73907  -0.00414 
 H                     1.77933   1.32721  -0.01965 
 H                    -0.56915   2.32326   0.20464 
 H                    -0.62025  -2.27993   0.12286 
 H                     1.78293  -1.27043  -0.06601 
 S                    -1.60845   0.0387   -0.1306 
 
 NAtoms=      9 NQM=        9 NQMF=       0 NMMI=      0 NMMIF=      0
                NMic=       0 NMicF=      0.
                    Isotopes and Nuclear Properties:
 (Nuclear quadrupole moments (NQMom) in fm**2, nuclear magnetic moments (NMagM)
  in nuclear magnetons)

  Atom         1           2           3           4           5           6           7           8           9
 IAtWgt=          12          12          12          12           1           1           1           1          32
 AtmWgt=  12.0000000  12.0000000  12.0000000  12.0000000   1.0078250   1.0078250   1.0078250   1.0078250  31.9720718
 NucSpn=           0           0           0           0           1           1           1           1           0
 AtZEff=   0.0000000   0.0000000   0.0000000   0.0000000   0.0000000   0.0000000   0.0000000   0.0000000   0.0000000
 NQMom=    0.0000000   0.0000000   0.0000000   0.0000000   0.0000000   0.0000000   0.0000000   0.0000000   0.0000000
 NMagM=    0.0000000   0.0000000   0.0000000   0.0000000   2.7928460   2.7928460   2.7928460   2.7928460   0.0000000
 AtZNuc=   6.0000000   6.0000000   6.0000000   6.0000000   1.0000000   1.0000000   1.0000000   1.0000000  16.0000000
 Leave Link  101 at Tue Apr  5 13:38:17 2016, MaxMem=    33554432 cpu:         0.0
 (Enter /home/dustin/Applications/g09/g09/l103.exe)

 GradGradGradGradGradGradGradGradGradGradGradGradGradGradGradGradGradGrad
 Berny optimization.
 Initialization pass.
                           ----------------------------
                           !    Initial Parameters    !
                           ! (Angstroms and Degrees)  !
 --------------------------                            --------------------------
 ! Name  Definition              Value          Derivative Info.                !
 --------------------------------------------------------------------------------
 ! R1    R(1,2)                  1.4064         estimate D2E/DX2                !
 ! R2    R(1,4)                  1.4225         estimate D2E/DX2                !
 ! R3    R(1,8)                  1.07           estimate D2E/DX2                !
 ! R4    R(2,7)                  1.07           estimate D2E/DX2                !
 ! R5    R(2,9)                  1.7623         estimate D2E/DX2                !
 ! R6    R(3,4)                  1.3669         estimate D2E/DX2                !
 ! R7    R(3,6)                  1.07           estimate D2E/DX2                !
 ! R8    R(3,9)                  1.7677         estimate D2E/DX2                !
 ! R9    R(4,5)                  1.07           estimate D2E/DX2                !
 ! A1    A(2,1,4)              113.0524         estimate D2E/DX2                !
 ! A2    A(2,1,8)              123.4778         estimate D2E/DX2                !
 ! A3    A(4,1,8)              123.4659         estimate D2E/DX2                !
 ! A4    A(1,2,7)              125.0503         estimate D2E/DX2                !
 ! A5    A(1,2,9)              109.8875         estimate D2E/DX2                !
 ! A6    A(7,2,9)              125.0616         estimate D2E/DX2                !
 ! A7    A(4,3,6)              124.4826         estimate D2E/DX2                !
 ! A8    A(4,3,9)              111.0237         estimate D2E/DX2                !
 ! A9    A(6,3,9)              124.4932         estimate D2E/DX2                !
 ! A10   A(1,4,3)              113.6341         estimate D2E/DX2                !
 ! A11   A(1,4,5)              123.175          estimate D2E/DX2                !
 ! A12   A(3,4,5)              123.1869         estimate D2E/DX2                !
 ! A13   A(2,9,3)               91.1778         estimate D2E/DX2                !
 ! D1    D(4,1,2,7)           -172.2225         estimate D2E/DX2                !
 ! D2    D(4,1,2,9)              7.5123         estimate D2E/DX2                !
 ! D3    D(8,1,2,7)              7.0752         estimate D2E/DX2                !
 ! D4    D(8,1,2,9)           -173.19           estimate D2E/DX2                !
 ! D5    D(2,1,4,3)              0.0151         estimate D2E/DX2                !
 ! D6    D(2,1,4,5)            179.3043         estimate D2E/DX2                !
 ! D7    D(8,1,4,3)           -179.2827         estimate D2E/DX2                !
 ! D8    D(8,1,4,5)              0.0065         estimate D2E/DX2                !
 ! D9    D(1,2,9,3)             -9.8223         estimate D2E/DX2                !
 ! D10   D(7,2,9,3)            169.9125         estimate D2E/DX2                !
 ! D11   D(6,3,4,1)            172.1782         estimate D2E/DX2                !
 ! D12   D(6,3,4,5)             -7.1109         estimate D2E/DX2                !
 ! D13   D(9,3,4,1)             -7.5681         estimate D2E/DX2                !
 ! D14   D(9,3,4,5)            173.1428         estimate D2E/DX2                !
 ! D15   D(4,3,9,2)             10.0041         estimate D2E/DX2                !
 ! D16   D(6,3,9,2)           -169.7422         estimate D2E/DX2                !
 --------------------------------------------------------------------------------
 Trust Radius=3.00D-01 FncErr=1.00D-07 GrdErr=1.00D-06
 Number of steps in this run=     48 maximum allowed number of steps=    100.
 GradGradGradGradGradGradGradGradGradGradGradGradGradGradGradGradGradGrad

 Leave Link  103 at Tue Apr  5 13:38:17 2016, MaxMem=    33554432 cpu:         0.0
 (Enter /home/dustin/Applications/g09/g09/l202.exe)
                          Input orientation:                          
 ---------------------------------------------------------------------
 Center     Atomic      Atomic             Coordinates (Angstroms)
 Number     Number       Type             X           Y           Z
 ---------------------------------------------------------------------
      1          6           0        0.889206   -0.683208   -0.029631
      2          6           0       -0.402374   -1.238046    0.013771
      3          6           0       -0.366984    1.282879    0.057553
      4          6           0        0.885605    0.739071   -0.004143
      5          1           0        1.779334    1.327209   -0.019652
      6          1           0       -0.569149    2.323262    0.204638
      7          1           0       -0.620248   -2.279934    0.122857
      8          1           0        1.782931   -1.270432   -0.066014
      9         16           0       -1.608452    0.038703   -0.130598
 ---------------------------------------------------------------------
                    Distance matrix (angstroms):
                    1          2          3          4          5
     1  C    0.000000
     2  C    1.406380   0.000000
     3  C    2.334762   2.521554   0.000000
     4  C    1.422512   2.359704   1.366936   0.000000
     5  H    2.198683   3.367715   2.148164   1.070000   0.000000
     6  H    3.349708   3.570316   1.070000   2.160916   2.560820
     7  H    2.202552   1.070000   3.572401   3.376109   4.334719
     8  H    1.070000   2.187000   3.340180   2.201618   2.598058
     9  S    2.601855   1.762259   1.767659   2.593613   3.626245
                    6          7          8          9
     6  H    0.000000
     7  H    4.604206   0.000000
     8  H    4.303506   2.613434   0.000000
     9  S    2.532142   2.533154   3.635861   0.000000
 Stoichiometry    C4H4S
 Framework group  C1[X(C4H4S)]
 Deg. of freedom    21
 Full point group                 C1      NOp   1
 Largest Abelian subgroup         C1      NOp   1
 Largest concise Abelian subgroup C1      NOp   1
                         Standard orientation:                         
 ---------------------------------------------------------------------
 Center     Atomic      Atomic             Coordinates (Angstroms)
 Number     Number       Type             X           Y           Z
 ---------------------------------------------------------------------
      1          6           0       -1.272693    0.731039   -0.030224
      2          6           0        0.023552    1.266881    0.072385
      3          6           0       -0.047317   -1.253677    0.072108
      4          6           0       -1.289160   -0.691377   -0.028685
      5          1           0       -2.189420   -1.266561   -0.088631
      6          1           0        0.135012   -2.299069    0.209263
      7          1           0        0.250979    2.303676    0.207413
      8          1           0       -2.156376    1.331285   -0.091139
      9         16           0        1.217095   -0.024158   -0.046901
 ---------------------------------------------------------------------
 Rotational constants (GHZ):      7.8131700      5.2363458      3.1475661
 Leave Link  202 at Tue Apr  5 13:38:17 2016, MaxMem=    33554432 cpu:         0.0
 (Enter /home/dustin/Applications/g09/g09/l301.exe)
 Standard basis: 3-21G (6D, 7F)
 Ernie: Thresh=  0.10000D-02 Tol=  0.10000D-05 Strict=F.
 There are    57 symmetry adapted cartesian basis functions of A   symmetry.
 There are    57 symmetry adapted basis functions of A   symmetry.
    57 basis functions,    99 primitive gaussians,    57 cartesian basis functions
    22 alpha electrons       22 beta electrons
       nuclear repulsion energy       199.8187887238 Hartrees.
 IExCor=  402 DFT=T Ex+Corr=B3LYP ExCW=0 ScaHFX=  0.200000
 ScaDFX=  0.800000  0.720000  1.000000  0.810000 ScalE2=  1.000000  1.000000
 IRadAn=      0 IRanWt=     -1 IRanGd=            0 ICorTp=0 IEmpDi=  4
 NAtoms=    9 NActive=    9 NUniq=    9 SFac= 1.00D+00 NAtFMM=   60 NAOKFM=F Big=F
 Integral buffers will be    131072 words long.
 Raffenetti 2 integral format.
 Two-electron integral symmetry is turned on.
 Leave Link  301 at Tue Apr  5 13:38:17 2016, MaxMem=    33554432 cpu:         0.0
 (Enter /home/dustin/Applications/g09/g09/l302.exe)
 NPDir=0 NMtPBC=     1 NCelOv=     1 NCel=       1 NClECP=     1 NCelD=      1
         NCelK=      1 NCelE2=     1 NClLst=     1 CellRange=     0.0.
 One-electron integrals computed using PRISM.
 NBasis=    57 RedAO= T EigKep=  5.45D-03  NBF=    57
 NBsUse=    57 1.00D-06 EigRej= -1.00D+00 NBFU=    57
 Precomputing XC quadrature grid using
 IXCGrd= 4 IRadAn=           0 IRanWt=          -1 IRanGd=           0 AccXCQ= 0.00D+00.
 Generated NRdTot=       0 NPtTot=           0 NUsed=           0 NTot=          32
 NSgBfM=    57    57    57    57    57 MxSgAt=     9 MxSgA2=     9.
 Leave Link  302 at Tue Apr  5 13:38:17 2016, MaxMem=    33554432 cpu:         0.1
 (Enter /home/dustin/Applications/g09/g09/l303.exe)
 DipDrv:  MaxL=1.
 Leave Link  303 at Tue Apr  5 13:38:17 2016, MaxMem=    33554432 cpu:         0.0
 (Enter /home/dustin/Applications/g09/g09/l401.exe)
 ExpMin= 1.42D-01 ExpMax= 1.21D+03 ExpMxC= 1.21D+03 IAcc=1 IRadAn=         1 AccDes= 0.00D+00
 Harris functional with IExCor=  402 and IRadAn=       1 diagonalized for initial guess.
 HarFok:  IExCor=  402 AccDes= 0.00D+00 IRadAn=         1 IDoV= 1 UseB2=F ITyADJ=14
 ICtDFT=  3500011 ScaDFX=  1.000000  1.000000  1.000000  1.000000
 FoFCou: FMM=F IPFlag=           0 FMFlag=      100000 FMFlg1=           0
         NFxFlg=           0 DoJE=T BraDBF=F KetDBF=T FulRan=T
         wScrn=  0.000000 ICntrl=     500 IOpCl=  0 I1Cent=   200000004 NGrid=           0
         NMat0=    1 NMatS0=      1 NMatT0=    0 NMatD0=    1 NMtDS0=    0 NMtDT0=    0
 Petite list used in FoFCou.
 Harris En= -550.138153040843    
 JPrj=0 DoOrth=F DoCkMO=F.
 Leave Link  401 at Tue Apr  5 13:38:17 2016, MaxMem=    33554432 cpu:         0.1
 (Enter /home/dustin/Applications/g09/g09/l502.exe)
 Closed shell SCF:
 Using DIIS extrapolation, IDIIS=  1040.
 Integral symmetry usage will be decided dynamically.
 Keep R1 ints in memory in canonical form, NReq=2273549.
 IVT=       29080 IEndB=       29080 NGot=    33554432 MDV=    32158322
 LenX=    32158322 LenY=    32154632
 Requested convergence on RMS density matrix=1.00D-08 within 128 cycles.
 Requested convergence on MAX density matrix=1.00D-06.
 Requested convergence on             energy=1.00D-06.
 No special actions if energy rises.
 FoFCou: FMM=F IPFlag=           0 FMFlag=           0 FMFlg1=           0
         NFxFlg=           0 DoJE=F BraDBF=F KetDBF=F FulRan=T
         wScrn=  0.000000 ICntrl=     600 IOpCl=  0 I1Cent=           0 NGrid=           0
         NMat0=    1 NMatS0=   1653 NMatT0=    0 NMatD0=    1 NMtDS0=    0 NMtDT0=    0
 Symmetry not used in FoFCou.
 Integral accuracy reduced to 1.0D-05 until final iterations.

 Cycle   1  Pass 0  IDiag  1:
 E= -550.007691137945    
 DIIS: error= 4.33D-02 at cycle   1 NSaved=   1.
 NSaved= 1 IEnMin= 1 EnMin= -550.007691137945     IErMin= 1 ErrMin= 4.33D-02
 ErrMax= 4.33D-02  0.00D+00 EMaxC= 1.00D-01 BMatC= 1.49D-01 BMatP= 1.49D-01
 IDIUse=3 WtCom= 5.67D-01 WtEn= 4.33D-01
 Coeff-Com:  0.100D+01
 Coeff-En:   0.100D+01
 Coeff:      0.100D+01
 Gap=     0.272 Goal=   None    Shift=    0.000
 GapD=    0.272 DampG=1.000 DampE=0.500 DampFc=0.5000 IDamp=-1.
 Damping current iteration by 5.00D-01
 RMSDP=1.96D-02 MaxDP=1.86D-01              OVMax= 3.11D-01

 Cycle   2  Pass 0  IDiag  1:
 E= -550.062339340389     Delta-E=       -0.054648202445 Rises=F Damp=T
 DIIS: error= 1.23D-02 at cycle   2 NSaved=   2.
 NSaved= 2 IEnMin= 2 EnMin= -550.062339340389     IErMin= 2 ErrMin= 1.23D-02
 ErrMax= 1.23D-02  0.00D+00 EMaxC= 1.00D-01 BMatC= 1.36D-02 BMatP= 1.49D-01
 IDIUse=3 WtCom= 8.77D-01 WtEn= 1.23D-01
 Coeff-Com:  0.178D+00 0.822D+00
 Coeff-En:   0.319D+00 0.681D+00
 Coeff:      0.195D+00 0.805D+00
 Gap=     0.268 Goal=   None    Shift=    0.000
 RMSDP=5.64D-03 MaxDP=4.18D-02 DE=-5.46D-02 OVMax= 2.60D-01

 Cycle   3  Pass 0  IDiag  1:
 E= -550.167693288287     Delta-E=       -0.105353947897 Rises=F Damp=F
 DIIS: error= 1.43D-02 at cycle   3 NSaved=   3.
 NSaved= 3 IEnMin= 3 EnMin= -550.167693288287     IErMin= 2 ErrMin= 1.23D-02
 ErrMax= 1.43D-02  0.00D+00 EMaxC= 1.00D-01 BMatC= 6.42D-03 BMatP= 1.36D-02
 IDIUse=3 WtCom= 8.57D-01 WtEn= 1.43D-01
 Coeff-Com:  0.731D-01 0.411D+00 0.516D+00
 Coeff-En:   0.000D+00 0.000D+00 0.100D+01
 Coeff:      0.627D-01 0.352D+00 0.585D+00
 Gap=     0.215 Goal=   None    Shift=    0.000
 RMSDP=2.34D-03 MaxDP=2.77D-02 DE=-1.05D-01 OVMax= 5.31D-02

 Cycle   4  Pass 0  IDiag  1:
 E= -550.172643248453     Delta-E=       -0.004949960166 Rises=F Damp=F
 DIIS: error= 7.70D-03 at cycle   4 NSaved=   4.
 NSaved= 4 IEnMin= 4 EnMin= -550.172643248453     IErMin= 4 ErrMin= 7.70D-03
 ErrMax= 7.70D-03  0.00D+00 EMaxC= 1.00D-01 BMatC= 2.14D-03 BMatP= 6.42D-03
 IDIUse=3 WtCom= 9.23D-01 WtEn= 7.70D-02
 Coeff-Com:  0.973D-02 0.470D-01 0.363D+00 0.581D+00
 Coeff-En:   0.000D+00 0.000D+00 0.273D+00 0.727D+00
 Coeff:      0.898D-02 0.434D-01 0.356D+00 0.592D+00
 Gap=     0.215 Goal=   None    Shift=    0.000
 RMSDP=9.38D-04 MaxDP=1.43D-02 DE=-4.95D-03 OVMax= 2.09D-02

 Cycle   5  Pass 0  IDiag  1:
 E= -550.174858092019     Delta-E=       -0.002214843566 Rises=F Damp=F
 DIIS: error= 8.89D-04 at cycle   5 NSaved=   5.
 NSaved= 5 IEnMin= 5 EnMin= -550.174858092019     IErMin= 5 ErrMin= 8.89D-04
 ErrMax= 8.89D-04  0.00D+00 EMaxC= 1.00D-01 BMatC= 6.39D-05 BMatP= 2.14D-03
 IDIUse=3 WtCom= 9.91D-01 WtEn= 8.89D-03
 Coeff-Com:  0.327D-02-0.144D-03 0.144D+00 0.286D+00 0.566D+00
 Coeff-En:   0.000D+00 0.000D+00 0.000D+00 0.000D+00 0.100D+01
 Coeff:      0.324D-02-0.143D-03 0.143D+00 0.284D+00 0.570D+00
 Gap=     0.216 Goal=   None    Shift=    0.000
 RMSDP=2.26D-04 MaxDP=2.42D-03 DE=-2.21D-03 OVMax= 5.45D-03

 Cycle   6  Pass 0  IDiag  1:
 E= -550.174916509781     Delta-E=       -0.000058417762 Rises=F Damp=F
 DIIS: error= 6.49D-04 at cycle   6 NSaved=   6.
 NSaved= 6 IEnMin= 6 EnMin= -550.174916509781     IErMin= 6 ErrMin= 6.49D-04
 ErrMax= 6.49D-04  0.00D+00 EMaxC= 1.00D-01 BMatC= 1.42D-05 BMatP= 6.39D-05
 IDIUse=3 WtCom= 9.94D-01 WtEn= 6.49D-03
 Coeff-Com:  0.158D-02-0.515D-02 0.583D-01 0.127D+00 0.371D+00 0.447D+00
 Coeff-En:   0.000D+00 0.000D+00 0.000D+00 0.000D+00 0.158D+00 0.842D+00
 Coeff:      0.157D-02-0.512D-02 0.579D-01 0.126D+00 0.370D+00 0.450D+00
 Gap=     0.216 Goal=   None    Shift=    0.000
 RMSDP=9.33D-05 MaxDP=1.29D-03 DE=-5.84D-05 OVMax= 2.69D-03

 Cycle   7  Pass 0  IDiag  1:
 E= -550.174932353917     Delta-E=       -0.000015844136 Rises=F Damp=F
 DIIS: error= 1.15D-04 at cycle   7 NSaved=   7.
 NSaved= 7 IEnMin= 7 EnMin= -550.174932353917     IErMin= 7 ErrMin= 1.15D-04
 ErrMax= 1.15D-04  0.00D+00 EMaxC= 1.00D-01 BMatC= 7.65D-07 BMatP= 1.42D-05
 IDIUse=3 WtCom= 9.99D-01 WtEn= 1.15D-03
 Coeff-Com:  0.415D-03-0.255D-02 0.781D-02 0.194D-01 0.100D+00 0.233D+00
 Coeff-Com:  0.641D+00
 Coeff-En:   0.000D+00 0.000D+00 0.000D+00 0.000D+00 0.000D+00 0.000D+00
 Coeff-En:   0.100D+01
 Coeff:      0.415D-03-0.254D-02 0.780D-02 0.194D-01 0.100D+00 0.233D+00
 Coeff:      0.642D+00
 Gap=     0.216 Goal=   None    Shift=    0.000
 RMSDP=2.41D-05 MaxDP=2.49D-04 DE=-1.58D-05 OVMax= 4.47D-04

 Cycle   8  Pass 0  IDiag  1:
 E= -550.174933271024     Delta-E=       -0.000000917107 Rises=F Damp=F
 DIIS: error= 8.45D-06 at cycle   8 NSaved=   8.
 NSaved= 8 IEnMin= 8 EnMin= -550.174933271024     IErMin= 8 ErrMin= 8.45D-06
 ErrMax= 8.45D-06  0.00D+00 EMaxC= 1.00D-01 BMatC= 3.90D-09 BMatP= 7.65D-07
 IDIUse=1 WtCom= 1.00D+00 WtEn= 0.00D+00
 Coeff-Com: -0.181D-04 0.612D-04-0.103D-02-0.342D-02-0.118D-01-0.120D-01
 Coeff-Com:  0.124D-01 0.102D+01
 Coeff:     -0.181D-04 0.612D-04-0.103D-02-0.342D-02-0.118D-01-0.120D-01
 Coeff:      0.124D-01 0.102D+01
 Gap=     0.216 Goal=   None    Shift=    0.000
 RMSDP=2.08D-06 MaxDP=2.00D-05 DE=-9.17D-07 OVMax= 2.94D-05

 Initial convergence to 1.0D-05 achieved.  Increase integral accuracy.
 Cycle   9  Pass 1  IDiag  1:
 E= -550.174884463044     Delta-E=        0.000048807981 Rises=F Damp=F
 DIIS: error= 1.83D-05 at cycle   1 NSaved=   1.
 NSaved= 1 IEnMin= 1 EnMin= -550.174884463044     IErMin= 1 ErrMin= 1.83D-05
 ErrMax= 1.83D-05  0.00D+00 EMaxC= 1.00D-01 BMatC= 1.85D-08 BMatP= 1.85D-08
 IDIUse=1 WtCom= 1.00D+00 WtEn= 0.00D+00
 Coeff-Com:  0.100D+01
 Coeff:      0.100D+01
 Gap=     0.216 Goal=   None    Shift=    0.000
 RMSDP=2.08D-06 MaxDP=2.00D-05 DE= 4.88D-05 OVMax= 7.36D-05

 Cycle  10  Pass 1  IDiag  1:
 E= -550.174884487582     Delta-E=       -0.000000024538 Rises=F Damp=F
 DIIS: error= 3.86D-06 at cycle   2 NSaved=   2.
 NSaved= 2 IEnMin= 2 EnMin= -550.174884487582     IErMin= 2 ErrMin= 3.86D-06
 ErrMax= 3.86D-06  0.00D+00 EMaxC= 1.00D-01 BMatC= 1.63D-09 BMatP= 1.85D-08
 IDIUse=1 WtCom= 1.00D+00 WtEn= 0.00D+00
 Coeff-Com:  0.133D+00 0.867D+00
 Coeff:      0.133D+00 0.867D+00
 Gap=     0.216 Goal=   None    Shift=    0.000
 RMSDP=1.74D-06 MaxDP=3.16D-05 DE=-2.45D-08 OVMax= 3.32D-05

 Cycle  11  Pass 1  IDiag  1:
 E= -550.174884487854     Delta-E=       -0.000000000272 Rises=F Damp=F
 DIIS: error= 3.14D-06 at cycle   3 NSaved=   3.
 NSaved= 3 IEnMin= 3 EnMin= -550.174884487854     IErMin= 3 ErrMin= 3.14D-06
 ErrMax= 3.14D-06  0.00D+00 EMaxC= 1.00D-01 BMatC= 1.30D-09 BMatP= 1.63D-09
 IDIUse=1 WtCom= 1.00D+00 WtEn= 0.00D+00
 Coeff-Com: -0.929D-02 0.469D+00 0.540D+00
 Coeff:     -0.929D-02 0.469D+00 0.540D+00
 Gap=     0.216 Goal=   None    Shift=    0.000
 RMSDP=1.08D-06 MaxDP=1.37D-05 DE=-2.72D-10 OVMax= 2.51D-05

 Cycle  12  Pass 1  IDiag  1:
 E= -550.174884489274     Delta-E=       -0.000000001420 Rises=F Damp=F
 DIIS: error= 1.81D-06 at cycle   4 NSaved=   4.
 NSaved= 4 IEnMin= 4 EnMin= -550.174884489274     IErMin= 4 ErrMin= 1.81D-06
 ErrMax= 1.81D-06  0.00D+00 EMaxC= 1.00D-01 BMatC= 1.51D-10 BMatP= 1.30D-09
 IDIUse=1 WtCom= 1.00D+00 WtEn= 0.00D+00
 Coeff-Com: -0.909D-02 0.214D+00 0.332D+00 0.463D+00
 Coeff:     -0.909D-02 0.214D+00 0.332D+00 0.463D+00
 Gap=     0.216 Goal=   None    Shift=    0.000
 RMSDP=3.18D-07 MaxDP=3.06D-06 DE=-1.42D-09 OVMax= 6.14D-06

 Cycle  13  Pass 1  IDiag  1:
 E= -550.174884489454     Delta-E=       -0.000000000180 Rises=F Damp=F
 DIIS: error= 2.99D-07 at cycle   5 NSaved=   5.
 NSaved= 5 IEnMin= 5 EnMin= -550.174884489454     IErMin= 5 ErrMin= 2.99D-07
 ErrMax= 2.99D-07  0.00D+00 EMaxC= 1.00D-01 BMatC= 5.00D-12 BMatP= 1.51D-10
 IDIUse=1 WtCom= 1.00D+00 WtEn= 0.00D+00
 Coeff-Com: -0.424D-02 0.691D-01 0.130D+00 0.207D+00 0.599D+00
 Coeff:     -0.424D-02 0.691D-01 0.130D+00 0.207D+00 0.599D+00
 Gap=     0.216 Goal=   None    Shift=    0.000
 RMSDP=6.01D-08 MaxDP=6.90D-07 DE=-1.80D-10 OVMax= 8.11D-07

 Cycle  14  Pass 1  IDiag  1:
 E= -550.174884489459     Delta-E=       -0.000000000005 Rises=F Damp=F
 DIIS: error= 1.28D-07 at cycle   6 NSaved=   6.
 NSaved= 6 IEnMin= 6 EnMin= -550.174884489459     IErMin= 6 ErrMin= 1.28D-07
 ErrMax= 1.28D-07  0.00D+00 EMaxC= 1.00D-01 BMatC= 7.64D-13 BMatP= 5.00D-12
 IDIUse=1 WtCom= 1.00D+00 WtEn= 0.00D+00
 Coeff-Com: -0.129D-02 0.148D-01 0.353D-01 0.578D-01 0.324D+00 0.569D+00
 Coeff:     -0.129D-02 0.148D-01 0.353D-01 0.578D-01 0.324D+00 0.569D+00
 Gap=     0.216 Goal=   None    Shift=    0.000
 RMSDP=1.98D-08 MaxDP=2.45D-07 DE=-5.23D-12 OVMax= 3.07D-07

 Cycle  15  Pass 1  IDiag  1:
 E= -550.174884489460     Delta-E=       -0.000000000001 Rises=F Damp=F
 DIIS: error= 1.80D-08 at cycle   7 NSaved=   7.
 NSaved= 7 IEnMin= 7 EnMin= -550.174884489460     IErMin= 7 ErrMin= 1.80D-08
 ErrMax= 1.80D-08  0.00D+00 EMaxC= 1.00D-01 BMatC= 1.28D-14 BMatP= 7.64D-13
 IDIUse=1 WtCom= 1.00D+00 WtEn= 0.00D+00
 Coeff-Com: -0.948D-04-0.613D-04 0.566D-03 0.368D-02 0.452D-01 0.146D+00
 Coeff-Com:  0.805D+00
 Coeff:     -0.948D-04-0.613D-04 0.566D-03 0.368D-02 0.452D-01 0.146D+00
 Coeff:      0.805D+00
 Gap=     0.216 Goal=   None    Shift=    0.000
 RMSDP=3.75D-09 MaxDP=4.21D-08 DE=-9.09D-13 OVMax= 6.85D-08

 SCF Done:  E(RB3LYP) =  -550.174884489     A.U. after   15 cycles
            NFock= 15  Conv=0.38D-08     -V/T= 2.0047
 KE= 5.476195425111D+02 PE=-1.697838518404D+03 EE= 4.002253026793D+02
 Leave Link  502 at Tue Apr  5 13:38:20 2016, MaxMem=    33554432 cpu:         3.3
 (Enter /home/dustin/Applications/g09/g09/l601.exe)
 Copying SCF densities to generalized density rwf, IOpCl= 0 IROHF=0.

 **********************************************************************

            Population analysis using the SCF density.

 **********************************************************************

 Orbital symmetries:
       Occupied  (A) (A) (A) (A) (A) (A) (A) (A) (A) (A) (A) (A)
                 (A) (A) (A) (A) (A) (A) (A) (A) (A) (A)
       Virtual   (A) (A) (A) (A) (A) (A) (A) (A) (A) (A) (A) (A)
                 (A) (A) (A) (A) (A) (A) (A) (A) (A) (A) (A) (A)
                 (A) (A) (A) (A) (A) (A) (A) (A) (A) (A) (A)
 The electronic state is 1-A.
 Alpha  occ. eigenvalues --  -88.27042 -10.16004 -10.15647 -10.13375 -10.13045
 Alpha  occ. eigenvalues --   -7.91355  -5.88307  -5.87871  -5.87336  -0.88422
 Alpha  occ. eigenvalues --   -0.74008  -0.72492  -0.57478  -0.55165  -0.52016
 Alpha  occ. eigenvalues --   -0.42392  -0.40165  -0.39336  -0.37388  -0.34457
 Alpha  occ. eigenvalues --   -0.25432  -0.23316
 Alpha virt. eigenvalues --   -0.01746   0.04324   0.08064   0.09732   0.12685
 Alpha virt. eigenvalues --    0.17736   0.20226   0.21322   0.28821   0.35689
 Alpha virt. eigenvalues --    0.43583   0.47056   0.50941   0.52297   0.53215
 Alpha virt. eigenvalues --    0.68226   0.72182   0.73119   0.73799   0.76729
 Alpha virt. eigenvalues --    0.78476   0.81416   0.83510   0.94108   0.99821
 Alpha virt. eigenvalues --    1.01348   1.05445   1.06590   1.24502   1.34774
 Alpha virt. eigenvalues --    1.38800   1.41425   1.60028   1.81158   1.92414
          Condensed to atoms (all electrons):
               1          2          3          4          5          6
     1  C    5.191835   0.406309  -0.103270   0.432309  -0.032975   0.002702
     2  C    0.406309   5.732950  -0.071433  -0.098201   0.004625   0.002145
     3  C   -0.103270  -0.071433   5.737867   0.396667  -0.036206   0.391360
     4  C    0.432309  -0.098201   0.396667   5.196516   0.391079  -0.030960
     5  H   -0.032975   0.004625  -0.036206   0.391079   0.474871  -0.001672
     6  H    0.002702   0.002145   0.391360  -0.030960  -0.001672   0.428207
     7  H   -0.027837   0.390044   0.002192   0.002294  -0.000039  -0.000015
     8  H    0.390194  -0.033584   0.004979  -0.034610  -0.001859  -0.000047
     9  S   -0.113291   0.248590   0.255552  -0.113811   0.003322  -0.019497
               7          8          9
     1  C   -0.027837   0.390194  -0.113291
     2  C    0.390044  -0.033584   0.248590
     3  C    0.002192   0.004979   0.255552
     4  C    0.002294  -0.034610  -0.113811
     5  H   -0.000039  -0.001859   0.003322
     6  H   -0.000015  -0.000047  -0.019497
     7  H    0.425499  -0.001238  -0.019719
     8  H   -0.001238   0.476689   0.003153
     9  S   -0.019719   0.003153  15.161061
 Mulliken charges:
               1
     1  C   -0.145976
     2  C   -0.581444
     3  C   -0.577708
     4  C   -0.141282
     5  H    0.198854
     6  H    0.227776
     7  H    0.228818
     8  H    0.196323
     9  S    0.594639
 Sum of Mulliken charges =   0.00000
 Mulliken charges with hydrogens summed into heavy atoms:
               1
     1  C    0.050347
     2  C   -0.352626
     3  C   -0.349931
     4  C    0.057571
     9  S    0.594639
 Electronic spatial extent (au):  <R**2>=            408.6626
 Charge=              0.0000 electrons
 Dipole moment (field-independent basis, Debye):
    X=             -0.8626    Y=             -0.0054    Z=              0.0488  Tot=              0.8640
 Quadrupole moment (field-independent basis, Debye-Ang):
   XX=            -34.9840   YY=            -31.0058   ZZ=            -40.5458
   XY=              0.1878   XZ=              0.2769   YZ=             -0.0004
 Traceless Quadrupole moment (field-independent basis, Debye-Ang):
   XX=              0.5279   YY=              4.5061   ZZ=             -5.0339
   XY=              0.1878   XZ=              0.2769   YZ=             -0.0004
 Octapole moment (field-independent basis, Debye-Ang**2):
  XXX=             -7.8444  YYY=             -0.0940  ZZZ=             -0.2968  XYY=              1.2256
  XXY=              0.1687  XXZ=             -1.2710  XZZ=              1.8401  YZZ=             -0.1422
  YYZ=              1.9140  XYZ=              0.0770
 Hexadecapole moment (field-independent basis, Debye-Ang**3):
 XXXX=           -276.2347 YYYY=           -188.4924 ZZZZ=            -46.9289 XXXY=              0.3541
 XXXZ=              1.1756 YYYX=              0.7517 YYYZ=              0.0201 ZZZX=              0.0646
 ZZZY=             -0.0038 XXYY=            -76.5870 XXZZ=            -61.0255 YYZZ=            -49.6302
 XXYZ=              0.0019 YYXZ=              0.7502 ZZXY=              0.0646
 N-N= 1.998187887238D+02 E-N=-1.697838519154D+03  KE= 5.476195425111D+02
 No NMR shielding tensors so no spin-rotation constants.
 Leave Link  601 at Tue Apr  5 13:38:20 2016, MaxMem=    33554432 cpu:         0.0
 (Enter /home/dustin/Applications/g09/g09/l701.exe)
 Compute integral first derivatives.
 ... and contract with generalized density number  0.
 Leave Link  701 at Tue Apr  5 13:38:21 2016, MaxMem=    33554432 cpu:         0.0
 (Enter /home/dustin/Applications/g09/g09/l702.exe)
 L702 exits ... SP integral derivatives will be done elsewhere.
 Leave Link  702 at Tue Apr  5 13:38:21 2016, MaxMem=    33554432 cpu:         0.0
 (Enter /home/dustin/Applications/g09/g09/l703.exe)
 Compute integral first derivatives, UseDBF=F ICtDFT=           0.
 Integral derivatives from FoFJK, PRISM(SPDF).
 Calling FoFJK, ICntrl=      2127 FMM=F ISym2X=0 I1Cent= 0 IOpClX= 0 NMat=1 NMatS=1 NMatT=0.
 FoFJK:  IHMeth= 1 ICntrl=    2127 DoSepK=F KAlg= 0 I1Cent=   0 FoldK=F
 IRaf=         0 NMat=   1 IRICut=       1 DoRegI=T DoRafI=F ISym2E= 0.
 FoFCou: FMM=F IPFlag=           0 FMFlag=      100000 FMFlg1=         800
         NFxFlg=           0 DoJE=F BraDBF=F KetDBF=F FulRan=T
         wScrn=  0.000000 ICntrl=    2127 IOpCl=  0 I1Cent=           0 NGrid=           0
         NMat0=    1 NMatS0=      1 NMatT0=    0 NMatD0=    1 NMtDS0=    0 NMtDT0=    0
 Symmetry not used in FoFCou.
 Leave Link  703 at Tue Apr  5 13:38:21 2016, MaxMem=    33554432 cpu:         0.7
 (Enter /home/dustin/Applications/g09/g09/l716.exe)
 Dipole        =-3.39386327D-01-2.10639885D-03 1.91894628D-02
 ***** Axes restored to original set *****
 -------------------------------------------------------------------
 Center     Atomic                   Forces (Hartrees/Bohr)
 Number     Number              X              Y              Z
 -------------------------------------------------------------------
      1        6          -0.034263566   -0.015075607    0.002999098
      2        6           0.052237248    0.009027495   -0.008436361
      3        6           0.021298178    0.005741675   -0.007454082
      4        6          -0.007789352   -0.000427135    0.002281679
      5        1           0.006419373    0.004901904    0.003207523
      6        1          -0.008612267    0.004314677   -0.005451848
      7        1          -0.007328049   -0.003789444   -0.005475729
      8        1           0.005514259   -0.005653546    0.002928990
      9       16          -0.027475825    0.000959981    0.015400730
 -------------------------------------------------------------------
 Cartesian Forces:  Max     0.052237248 RMS     0.015226580
 Leave Link  716 at Tue Apr  5 13:38:21 2016, MaxMem=    33554432 cpu:         0.0
 (Enter /home/dustin/Applications/g09/g09/l103.exe)

 GradGradGradGradGradGradGradGradGradGradGradGradGradGradGradGradGradGrad
 Berny optimization.
 FormGI is forming the generalized inverse of G from B-inverse, IUseBI=4.
 Internal  Forces:  Max     0.030599714 RMS     0.007894831
 Search for a local minimum.
 Step number   1 out of a maximum of   48
 All quantities printed in internal units (Hartrees-Bohrs-Radians)
 RMS Force = .78948D-02 SwitMx=.10000D-02 MixMth= 1
 Mixed Optimization -- RFO/linear search
 Second derivative matrix not updated -- first step.
 ITU=  0
     Eigenvalues ---    0.01441   0.01605   0.01887   0.01921   0.02037
     Eigenvalues ---    0.02224   0.15998   0.15999   0.16000   0.16000
     Eigenvalues ---    0.21911   0.22612   0.28217   0.28767   0.37230
     Eigenvalues ---    0.37230   0.37230   0.37230   0.40748   0.42654
     Eigenvalues ---    0.49704
 RFO step:  Lambda=-1.89909867D-02 EMin= 1.44075289D-02
 Linear search not attempted -- first point.
 Iteration  1 RMS(Cart)=  0.08817415 RMS(Int)=  0.01959460
 Iteration  2 RMS(Cart)=  0.01759116 RMS(Int)=  0.00482433
 Iteration  3 RMS(Cart)=  0.00037190 RMS(Int)=  0.00480718
 Iteration  4 RMS(Cart)=  0.00000108 RMS(Int)=  0.00480718
 Iteration  5 RMS(Cart)=  0.00000001 RMS(Int)=  0.00480718
 ITry= 1 IFail=0 DXMaxC= 4.49D-01 DCOld= 1.00D+10 DXMaxT= 3.00D-01 DXLimC= 3.00D+00 Rises=F
 Variable       Old X    -DE/DX   Delta X   Delta X   Delta X     New X
                                 (Linear)    (Quad)   (Total)
    R1        2.65767  -0.03060   0.00000  -0.06873  -0.06834   2.58933
    R2        2.68816   0.00911   0.00000   0.01890   0.01985   2.70801
    R3        2.02201   0.00761   0.00000   0.01945   0.01945   2.04145
    R4        2.02201   0.00462   0.00000   0.01182   0.01182   2.03382
    R5        3.33019   0.01545   0.00000   0.04907   0.04832   3.37851
    R6        2.58313  -0.00022   0.00000   0.00090   0.00128   2.58442
    R7        2.02201   0.00507   0.00000   0.01297   0.01297   2.03497
    R8        3.34039   0.01053   0.00000   0.03847   0.03787   3.37826
    R9        2.02201   0.00801   0.00000   0.02047   0.02047   2.04248
    A1        1.97314   0.00226   0.00000   0.01246   0.00348   1.97662
    A2        2.15509  -0.00290   0.00000  -0.01581  -0.01227   2.14282
    A3        2.15489   0.00065   0.00000   0.00408   0.00757   2.16246
    A4        2.18254   0.00274   0.00000   0.01834   0.02067   2.20321
    A5        1.91790   0.00780   0.00000   0.03715   0.02470   1.94260
    A6        2.18274  -0.01056   0.00000  -0.05603  -0.05313   2.12961
    A7        2.17263   0.00862   0.00000   0.03771   0.04022   2.21285
    A8        1.93773  -0.00138   0.00000   0.01284   0.00102   1.93875
    A9        2.17282  -0.00726   0.00000  -0.05106  -0.04844   2.12438
   A10        1.98329   0.00040   0.00000   0.01308   0.00419   1.98748
   A11        2.14981   0.00054   0.00000  -0.00207   0.00156   2.15137
   A12        2.15002  -0.00093   0.00000  -0.01034  -0.00672   2.14330
   A13        1.59135  -0.00665   0.00000  -0.00420  -0.02118   1.57017
    D1       -3.00585  -0.00292   0.00000  -0.09799  -0.09590  -3.10175
    D2        0.13111  -0.00704   0.00000  -0.22278  -0.22365  -0.09254
    D3        0.12348  -0.00138   0.00000  -0.03228  -0.03108   0.09241
    D4       -3.02274  -0.00550   0.00000  -0.15708  -0.15883   3.10162
    D5        0.00026   0.00004   0.00000   0.00797   0.00721   0.00747
    D6        3.12945   0.00145   0.00000   0.06732   0.06731  -3.08643
    D7       -3.12907  -0.00147   0.00000  -0.05756  -0.05829   3.09582
    D8        0.00011  -0.00007   0.00000   0.00178   0.00180   0.00192
    D9       -0.17143   0.00935   0.00000   0.28650   0.28634   0.11491
   D10        2.96553   0.00528   0.00000   0.16193   0.16507   3.13060
   D11        3.00508   0.00253   0.00000   0.08979   0.08964   3.09471
   D12       -0.12411   0.00111   0.00000   0.03037   0.02979  -0.09432
   D13       -0.13209   0.00726   0.00000   0.21234   0.21321   0.08112
   D14        3.02191   0.00584   0.00000   0.15292   0.15336  -3.10792
   D15        0.17460  -0.01090   0.00000  -0.29076  -0.28497  -0.11037
   D16       -2.96256  -0.00622   0.00000  -0.16846  -0.16893  -3.13149
         Item               Value     Threshold  Converged?
 Maximum Force            0.030600     0.000450     NO 
 RMS     Force            0.007895     0.000300     NO 
 Maximum Displacement     0.449382     0.001800     NO 
 RMS     Displacement     0.101376     0.001200     NO 
 Predicted change in Energy=-1.348157D-02
 Lowest energy point so far.  Saving SCF results.
 GradGradGradGradGradGradGradGradGradGradGradGradGradGradGradGradGradGrad

 Leave Link  103 at Tue Apr  5 13:38:21 2016, MaxMem=    33554432 cpu:         0.0
 (Enter /home/dustin/Applications/g09/g09/l202.exe)
                          Input orientation:                          
 ---------------------------------------------------------------------
 Center     Atomic      Atomic             Coordinates (Angstroms)
 Number     Number       Type             X           Y           Z
 ---------------------------------------------------------------------
      1          6           0        0.885647   -0.694363    0.006426
      2          6           0       -0.374143   -1.231766   -0.033844
      3          6           0       -0.360042    1.295238    0.013834
      4          6           0        0.889037    0.738488    0.028042
      5          1           0        1.793777    1.329526    0.010195
      6          1           0       -0.599281    2.343906    0.065709
      7          1           0       -0.619484   -2.279607   -0.021263
      8          1           0        1.780531   -1.298562   -0.027524
      9         16           0       -1.626172    0.036645    0.107205
 ---------------------------------------------------------------------
                    Distance matrix (angstroms):
                    1          2          3          4          5
     1  C    0.000000
     2  C    1.370217   0.000000
     3  C    2.347405   2.527493   0.000000
     4  C    1.433018   2.341229   1.367615   0.000000
     5  H    2.218297   3.355895   2.154095   1.080832   0.000000
     6  H    3.382248   3.584135   1.076861   2.189492   2.599765
     7  H    2.186134   1.076253   3.584419   3.374457   4.341734
     8  H    1.080290   2.155718   3.363266   2.224280   2.628392
     9  S    2.617969   1.787831   1.787696   2.612494   3.657458
                    6          7          8          9
     6  H    0.000000
     7  H    4.624374   0.000000
     8  H    4.351985   2.592790   0.000000
     9  S    2.525802   2.528823   3.661496   0.000000
 Stoichiometry    C4H4S
 Framework group  C1[X(C4H4S)]
 Deg. of freedom    21
 Full point group                 C1      NOp   1
 RotChk:  IX=1 Diff= 1.11D-01
 Largest Abelian subgroup         C1      NOp   1
 Largest concise Abelian subgroup C1      NOp   1
                         Standard orientation:                         
 ---------------------------------------------------------------------
 Center     Atomic      Atomic             Coordinates (Angstroms)
 Number     Number       Type             X           Y           Z
 ---------------------------------------------------------------------
      1          6           0       -1.289893    0.710080    0.023105
      2          6           0       -0.038311    1.262722   -0.051876
      3          6           0       -0.022915   -1.264723   -0.049221
      4          6           0       -1.276754   -0.722872    0.019033
      5          1           0       -2.175001   -1.323986    0.022459
      6          1           0        0.229534   -2.311288   -0.024696
      7          1           0        0.195782    2.312962   -0.029093
      8          1           0       -2.192010    1.304335    0.031605
      9         16           0        1.231808    0.006671    0.022092
 ---------------------------------------------------------------------
 Rotational constants (GHZ):      7.7753480      5.1739464      3.1101358
 Leave Link  202 at Tue Apr  5 13:38:21 2016, MaxMem=    33554432 cpu:         0.0
 (Enter /home/dustin/Applications/g09/g09/l301.exe)
 Standard basis: 3-21G (6D, 7F)
 Ernie: Thresh=  0.10000D-02 Tol=  0.10000D-05 Strict=F.
 There are    57 symmetry adapted cartesian basis functions of A   symmetry.
 There are    57 symmetry adapted basis functions of A   symmetry.
    57 basis functions,    99 primitive gaussians,    57 cartesian basis functions
    22 alpha electrons       22 beta electrons
       nuclear repulsion energy       198.9177661509 Hartrees.
 IExCor=  402 DFT=T Ex+Corr=B3LYP ExCW=0 ScaHFX=  0.200000
 ScaDFX=  0.800000  0.720000  1.000000  0.810000 ScalE2=  1.000000  1.000000
 IRadAn=      0 IRanWt=     -1 IRanGd=            0 ICorTp=0 IEmpDi=  4
 NAtoms=    9 NActive=    9 NUniq=    9 SFac= 1.00D+00 NAtFMM=   60 NAOKFM=F Big=F
 Integral buffers will be    131072 words long.
 Raffenetti 2 integral format.
 Two-electron integral symmetry is turned on.
 Leave Link  301 at Tue Apr  5 13:38:21 2016, MaxMem=    33554432 cpu:         0.0
 (Enter /home/dustin/Applications/g09/g09/l302.exe)
 NPDir=0 NMtPBC=     1 NCelOv=     1 NCel=       1 NClECP=     1 NCelD=      1
         NCelK=      1 NCelE2=     1 NClLst=     1 CellRange=     0.0.
 One-electron integrals computed using PRISM.
 NBasis=    57 RedAO= T EigKep=  5.26D-03  NBF=    57
 NBsUse=    57 1.00D-06 EigRej= -1.00D+00 NBFU=    57
 Precomputing XC quadrature grid using
 IXCGrd= 4 IRadAn=           0 IRanWt=          -1 IRanGd=           0 AccXCQ= 0.00D+00.
 Generated NRdTot=       0 NPtTot=           0 NUsed=           0 NTot=          32
 NSgBfM=    57    57    57    57    57 MxSgAt=     9 MxSgA2=     9.
 Leave Link  302 at Tue Apr  5 13:38:21 2016, MaxMem=    33554432 cpu:         0.1
 (Enter /home/dustin/Applications/g09/g09/l303.exe)
 DipDrv:  MaxL=1.
 Leave Link  303 at Tue Apr  5 13:38:21 2016, MaxMem=    33554432 cpu:         0.0
 (Enter /home/dustin/Applications/g09/g09/l401.exe)
 Initial guess from the checkpoint file:  "freq.chk"
 B after Tr=     0.000000    0.000000    0.000000
         Rot=    0.999917   -0.000081    0.000015   -0.012894 Ang=  -1.48 deg.
 Guess basis will be translated and rotated to current coordinates.
 JPrj=2 DoOrth=T DoCkMO=T.
 Generating alternative initial guess.
 ExpMin= 1.42D-01 ExpMax= 1.21D+03 ExpMxC= 1.21D+03 IAcc=1 IRadAn=         1 AccDes= 0.00D+00
 Harris functional with IExCor=  402 and IRadAn=       1 diagonalized for initial guess.
 HarFok:  IExCor=  402 AccDes= 0.00D+00 IRadAn=         1 IDoV= 1 UseB2=F ITyADJ=14
 ICtDFT=  3500011 ScaDFX=  1.000000  1.000000  1.000000  1.000000
 FoFCou: FMM=F IPFlag=           0 FMFlag=      100000 FMFlg1=           0
         NFxFlg=           0 DoJE=T BraDBF=F KetDBF=T FulRan=T
         wScrn=  0.000000 ICntrl=     500 IOpCl=  0 I1Cent=   200000004 NGrid=           0
         NMat0=    1 NMatS0=      1 NMatT0=    0 NMatD0=    1 NMtDS0=    0 NMtDT0=    0
 Petite list used in FoFCou.
 Harris En= -550.142764847798    
 Leave Link  401 at Tue Apr  5 13:38:22 2016, MaxMem=    33554432 cpu:         0.2
 (Enter /home/dustin/Applications/g09/g09/l502.exe)
 Closed shell SCF:
 Using DIIS extrapolation, IDIIS=  1040.
 Integral symmetry usage will be decided dynamically.
 Keep R1 ints in memory in canonical form, NReq=2273549.
 IVT=       29080 IEndB=       29080 NGot=    33554432 MDV=    32158322
 LenX=    32158322 LenY=    32154632
 Requested convergence on RMS density matrix=1.00D-08 within 128 cycles.
 Requested convergence on MAX density matrix=1.00D-06.
 Requested convergence on             energy=1.00D-06.
 No special actions if energy rises.
 FoFCou: FMM=F IPFlag=           0 FMFlag=           0 FMFlg1=           0
         NFxFlg=           0 DoJE=F BraDBF=F KetDBF=F FulRan=T
         wScrn=  0.000000 ICntrl=     600 IOpCl=  0 I1Cent=           0 NGrid=           0
         NMat0=    1 NMatS0=   1653 NMatT0=    0 NMatD0=    1 NMtDS0=    0 NMtDT0=    0
 Symmetry not used in FoFCou.
 Integral accuracy reduced to 1.0D-05 until final iterations.

 Cycle   1  Pass 0  IDiag  1:
 E= -550.156363000279    
 DIIS: error= 1.96D-02 at cycle   1 NSaved=   1.
 NSaved= 1 IEnMin= 1 EnMin= -550.156363000279     IErMin= 1 ErrMin= 1.96D-02
 ErrMax= 1.96D-02  0.00D+00 EMaxC= 1.00D-01 BMatC= 1.40D-02 BMatP= 1.40D-02
 IDIUse=3 WtCom= 8.04D-01 WtEn= 1.96D-01
 Coeff-Com:  0.100D+01
 Coeff-En:   0.100D+01
 Coeff:      0.100D+01
 Recover alternate guess density for next cycle.
 RMSDP=8.10D-03 MaxDP=6.61D-02              OVMax= 0.00D+00

 Cycle   2  Pass 0  IDiag  1:
 E= -550.017825931309     Delta-E=        0.138537068969 Rises=F Damp=F
 Switch densities from cycles 1 and 2 for lowest energy.
 DIIS: error= 4.59D-02 at cycle   2 NSaved=   2.
 NSaved= 2 IEnMin= 1 EnMin= -550.156363000279     IErMin= 1 ErrMin= 1.96D-02
 ErrMax= 4.59D-02  0.00D+00 EMaxC= 1.00D+00 BMatC= 1.46D-01 BMatP= 1.40D-02
 IDIUse=1 WtCom= 1.00D+00 WtEn= 0.00D+00
 Coeff-Com:  0.918D+00 0.821D-01
 Coeff:      0.918D+00 0.821D-01
 Gap=     0.239 Goal=   None    Shift=    0.000
 RMSDP=4.41D-03 MaxDP=4.61D-02 DE= 1.39D-01 OVMax= 1.96D-01

 Cycle   3  Pass 0  IDiag  1:
 E= -550.178089402045     Delta-E=       -0.160263470736 Rises=F Damp=F
 DIIS: error= 5.51D-03 at cycle   3 NSaved=   3.
 NSaved= 3 IEnMin= 3 EnMin= -550.178089402045     IErMin= 3 ErrMin= 5.51D-03
 ErrMax= 5.51D-03  0.00D+00 EMaxC= 1.00D+00 BMatC= 3.00D-03 BMatP= 1.40D-02
 IDIUse=1 WtCom= 1.00D+00 WtEn= 0.00D+00
 Coeff-Com: -0.170D-01 0.120D+00 0.897D+00
 Coeff:     -0.170D-01 0.120D+00 0.897D+00
 Gap=     0.225 Goal=   None    Shift=    0.000
 RMSDP=1.83D-03 MaxDP=1.74D-02 DE=-1.60D-01 OVMax= 3.38D-02

 Cycle   4  Pass 0  IDiag  1:
 E= -550.181496631868     Delta-E=       -0.003407229823 Rises=F Damp=F
 DIIS: error= 2.00D-03 at cycle   4 NSaved=   4.
 NSaved= 4 IEnMin= 4 EnMin= -550.181496631868     IErMin= 4 ErrMin= 2.00D-03
 ErrMax= 2.00D-03  0.00D+00 EMaxC= 1.00D+00 BMatC= 3.50D-04 BMatP= 3.00D-03
 IDIUse=1 WtCom= 1.00D+00 WtEn= 0.00D+00
 Coeff-Com: -0.223D-01 0.432D-01 0.419D+00 0.560D+00
 Coeff:     -0.223D-01 0.432D-01 0.419D+00 0.560D+00
 Gap=     0.225 Goal=   None    Shift=    0.000
 RMSDP=5.92D-04 MaxDP=5.32D-03 DE=-3.41D-03 OVMax= 1.23D-02

 Cycle   5  Pass 0  IDiag  1:
 E= -550.181848601123     Delta-E=       -0.000351969255 Rises=F Damp=F
 DIIS: error= 1.47D-03 at cycle   5 NSaved=   5.
 NSaved= 5 IEnMin= 5 EnMin= -550.181848601123     IErMin= 5 ErrMin= 1.47D-03
 ErrMax= 1.47D-03  0.00D+00 EMaxC= 1.00D+00 BMatC= 8.22D-05 BMatP= 3.50D-04
 IDIUse=1 WtCom= 1.00D+00 WtEn= 0.00D+00
 Coeff-Com: -0.916D-02 0.832D-02 0.133D+00 0.357D+00 0.511D+00
 Coeff:     -0.916D-02 0.832D-02 0.133D+00 0.357D+00 0.511D+00
 Gap=     0.224 Goal=   None    Shift=    0.000
 RMSDP=2.33D-04 MaxDP=3.52D-03 DE=-3.52D-04 OVMax= 6.09D-03

 Cycle   6  Pass 0  IDiag  1:
 E= -550.181938125449     Delta-E=       -0.000089524326 Rises=F Damp=F
 DIIS: error= 3.76D-04 at cycle   6 NSaved=   6.
 NSaved= 6 IEnMin= 6 EnMin= -550.181938125449     IErMin= 6 ErrMin= 3.76D-04
 ErrMax= 3.76D-04  0.00D+00 EMaxC= 1.00D+00 BMatC= 6.55D-06 BMatP= 8.22D-05
 IDIUse=1 WtCom= 1.00D+00 WtEn= 0.00D+00
 Coeff-Com: -0.285D-02 0.677D-03 0.305D-01 0.144D+00 0.288D+00 0.539D+00
 Coeff:     -0.285D-02 0.677D-03 0.305D-01 0.144D+00 0.288D+00 0.539D+00
 Gap=     0.224 Goal=   None    Shift=    0.000
 RMSDP=5.65D-05 MaxDP=5.58D-04 DE=-8.95D-05 OVMax= 1.43D-03

 Cycle   7  Pass 0  IDiag  1:
 E= -550.181945208709     Delta-E=       -0.000007083259 Rises=F Damp=F
 DIIS: error= 7.47D-05 at cycle   7 NSaved=   7.
 NSaved= 7 IEnMin= 7 EnMin= -550.181945208709     IErMin= 7 ErrMin= 7.47D-05
 ErrMax= 7.47D-05  0.00D+00 EMaxC= 1.00D+00 BMatC= 4.35D-07 BMatP= 6.55D-06
 IDIUse=1 WtCom= 1.00D+00 WtEn= 0.00D+00
 Coeff-Com: -0.651D-03-0.266D-03 0.354D-02 0.438D-01 0.104D+00 0.269D+00
 Coeff-Com:  0.580D+00
 Coeff:     -0.651D-03-0.266D-03 0.354D-02 0.438D-01 0.104D+00 0.269D+00
 Coeff:      0.580D+00
 Gap=     0.224 Goal=   None    Shift=    0.000
 RMSDP=1.68D-05 MaxDP=2.61D-04 DE=-7.08D-06 OVMax= 3.27D-04

 Cycle   8  Pass 0  IDiag  1:
 E= -550.181945613019     Delta-E=       -0.000000404310 Rises=F Damp=F
 DIIS: error= 4.43D-05 at cycle   8 NSaved=   8.
 NSaved= 8 IEnMin= 8 EnMin= -550.181945613019     IErMin= 8 ErrMin= 4.43D-05
 ErrMax= 4.43D-05  0.00D+00 EMaxC= 1.00D+00 BMatC= 6.49D-08 BMatP= 4.35D-07
 IDIUse=1 WtCom= 1.00D+00 WtEn= 0.00D+00
 Coeff-Com:  0.418D-05-0.199D-03-0.257D-02 0.383D-02 0.170D-01 0.704D-01
 Coeff-Com:  0.318D+00 0.593D+00
 Coeff:      0.418D-05-0.199D-03-0.257D-02 0.383D-02 0.170D-01 0.704D-01
 Coeff:      0.318D+00 0.593D+00
 Gap=     0.224 Goal=   None    Shift=    0.000
 RMSDP=6.27D-06 MaxDP=7.65D-05 DE=-4.04D-07 OVMax= 1.33D-04

 Initial convergence to 1.0D-05 achieved.  Increase integral accuracy.
 Cycle   9  Pass 1  IDiag  1:
 E= -550.181945896146     Delta-E=       -0.000000283127 Rises=F Damp=F
 DIIS: error= 1.99D-05 at cycle   1 NSaved=   1.
 NSaved= 1 IEnMin= 1 EnMin= -550.181945896146     IErMin= 1 ErrMin= 1.99D-05
 ErrMax= 1.99D-05  0.00D+00 EMaxC= 1.00D+00 BMatC= 2.64D-08 BMatP= 2.64D-08
 IDIUse=1 WtCom= 1.00D+00 WtEn= 0.00D+00
 Coeff-Com:  0.100D+01
 Coeff:      0.100D+01
 Gap=     0.224 Goal=   None    Shift=    0.000
 RMSDP=6.27D-06 MaxDP=7.65D-05 DE=-2.83D-07 OVMax= 9.11D-05

 Cycle  10  Pass 1  IDiag  1:
 E= -550.181945912568     Delta-E=       -0.000000016422 Rises=F Damp=F
 DIIS: error= 1.97D-05 at cycle   2 NSaved=   2.
 NSaved= 2 IEnMin= 2 EnMin= -550.181945912568     IErMin= 2 ErrMin= 1.97D-05
 ErrMax= 1.97D-05  0.00D+00 EMaxC= 1.00D+00 BMatC= 1.67D-08 BMatP= 2.64D-08
 IDIUse=1 WtCom= 1.00D+00 WtEn= 0.00D+00
 Coeff-Com:  0.426D+00 0.574D+00
 Coeff:      0.426D+00 0.574D+00
 Gap=     0.224 Goal=   None    Shift=    0.000
 RMSDP=4.17D-06 MaxDP=4.43D-05 DE=-1.64D-08 OVMax= 8.86D-05

 Cycle  11  Pass 1  IDiag  1:
 E= -550.181945924486     Delta-E=       -0.000000011918 Rises=F Damp=F
 DIIS: error= 1.35D-05 at cycle   3 NSaved=   3.
 NSaved= 3 IEnMin= 3 EnMin= -550.181945924486     IErMin= 3 ErrMin= 1.35D-05
 ErrMax= 1.35D-05  0.00D+00 EMaxC= 1.00D+00 BMatC= 5.84D-09 BMatP= 1.67D-08
 IDIUse=1 WtCom= 1.00D+00 WtEn= 0.00D+00
 Coeff-Com:  0.214D-01 0.369D+00 0.610D+00
 Coeff:      0.214D-01 0.369D+00 0.610D+00
 Gap=     0.224 Goal=   None    Shift=    0.000
 RMSDP=1.96D-06 MaxDP=2.01D-05 DE=-1.19D-08 OVMax= 3.94D-05

 Cycle  12  Pass 1  IDiag  1:
 E= -550.181945931043     Delta-E=       -0.000000006557 Rises=F Damp=F
 DIIS: error= 2.28D-06 at cycle   4 NSaved=   4.
 NSaved= 4 IEnMin= 4 EnMin= -550.181945931043     IErMin= 4 ErrMin= 2.28D-06
 ErrMax= 2.28D-06  0.00D+00 EMaxC= 1.00D+00 BMatC= 3.75D-10 BMatP= 5.84D-09
 IDIUse=1 WtCom= 1.00D+00 WtEn= 0.00D+00
 Coeff-Com: -0.923D-02 0.170D+00 0.343D+00 0.496D+00
 Coeff:     -0.923D-02 0.170D+00 0.343D+00 0.496D+00
 Gap=     0.224 Goal=   None    Shift=    0.000
 RMSDP=4.00D-07 MaxDP=6.47D-06 DE=-6.56D-09 OVMax= 7.27D-06

 Cycle  13  Pass 1  IDiag  1:
 E= -550.181945931430     Delta-E=       -0.000000000387 Rises=F Damp=F
 DIIS: error= 5.79D-07 at cycle   5 NSaved=   5.
 NSaved= 5 IEnMin= 5 EnMin= -550.181945931430     IErMin= 5 ErrMin= 5.79D-07
 ErrMax= 5.79D-07  0.00D+00 EMaxC= 1.00D+00 BMatC= 1.44D-11 BMatP= 3.75D-10
 IDIUse=1 WtCom= 1.00D+00 WtEn= 0.00D+00
 Coeff-Com: -0.543D-02 0.577D-01 0.133D+00 0.231D+00 0.584D+00
 Coeff:     -0.543D-02 0.577D-01 0.133D+00 0.231D+00 0.584D+00
 Gap=     0.224 Goal=   None    Shift=    0.000
 RMSDP=9.48D-08 MaxDP=1.04D-06 DE=-3.87D-10 OVMax= 2.24D-06

 Cycle  14  Pass 1  IDiag  1:
 E= -550.181945931443     Delta-E=       -0.000000000013 Rises=F Damp=F
 DIIS: error= 2.74D-07 at cycle   6 NSaved=   6.
 NSaved= 6 IEnMin= 6 EnMin= -550.181945931443     IErMin= 6 ErrMin= 2.74D-07
 ErrMax= 2.74D-07  0.00D+00 EMaxC= 1.00D+00 BMatC= 2.43D-12 BMatP= 1.44D-11
 IDIUse=1 WtCom= 1.00D+00 WtEn= 0.00D+00
 Coeff-Com: -0.251D-02 0.191D-01 0.500D-01 0.901D-01 0.339D+00 0.504D+00
 Coeff:     -0.251D-02 0.191D-01 0.500D-01 0.901D-01 0.339D+00 0.504D+00
 Gap=     0.224 Goal=   None    Shift=    0.000
 RMSDP=4.16D-08 MaxDP=4.43D-07 DE=-1.30D-11 OVMax= 1.14D-06

 Cycle  15  Pass 1  IDiag  1:
 E= -550.181945931448     Delta-E=       -0.000000000005 Rises=F Damp=F
 DIIS: error= 7.56D-08 at cycle   7 NSaved=   7.
 NSaved= 7 IEnMin= 7 EnMin= -550.181945931448     IErMin= 7 ErrMin= 7.56D-08
 ErrMax= 7.56D-08  0.00D+00 EMaxC= 1.00D+00 BMatC= 3.05D-13 BMatP= 2.43D-12
 IDIUse=1 WtCom= 1.00D+00 WtEn= 0.00D+00
 Coeff-Com: -0.676D-03 0.318D-02 0.114D-01 0.210D-01 0.124D+00 0.309D+00
 Coeff-Com:  0.533D+00
 Coeff:     -0.676D-03 0.318D-02 0.114D-01 0.210D-01 0.124D+00 0.309D+00
 Coeff:      0.533D+00
 Gap=     0.224 Goal=   None    Shift=    0.000
 RMSDP=1.41D-08 MaxDP=1.58D-07 DE=-4.55D-12 OVMax= 2.99D-07

 Cycle  16  Pass 1  IDiag  1:
 E= -550.181945931447     Delta-E=        0.000000000000 Rises=F Damp=F
 DIIS: error= 8.80D-09 at cycle   8 NSaved=   8.
 NSaved= 8 IEnMin= 7 EnMin= -550.181945931448     IErMin= 8 ErrMin= 8.80D-09
 ErrMax= 8.80D-09  0.00D+00 EMaxC= 1.00D+00 BMatC= 4.86D-15 BMatP= 3.05D-13
 IDIUse=1 WtCom= 1.00D+00 WtEn= 0.00D+00
 Coeff-Com: -0.456D-05-0.487D-03-0.984D-03-0.161D-02 0.212D-02 0.307D-01
 Coeff-Com:  0.144D+00 0.826D+00
 Coeff:     -0.456D-05-0.487D-03-0.984D-03-0.161D-02 0.212D-02 0.307D-01
 Coeff:      0.144D+00 0.826D+00
 Gap=     0.224 Goal=   None    Shift=    0.000
 RMSDP=2.34D-09 MaxDP=1.99D-08 DE= 4.55D-13 OVMax= 4.50D-08

 SCF Done:  E(RB3LYP) =  -550.181945931     A.U. after   16 cycles
            NFock= 16  Conv=0.23D-08     -V/T= 2.0048
 KE= 5.475644961609D+02 PE=-1.696027898985D+03 EE= 3.993636907422D+02
 Leave Link  502 at Tue Apr  5 13:38:25 2016, MaxMem=    33554432 cpu:         3.6
 (Enter /home/dustin/Applications/g09/g09/l701.exe)
 Compute integral first derivatives.
 ... and contract with generalized density number  0.
 Leave Link  701 at Tue Apr  5 13:38:25 2016, MaxMem=    33554432 cpu:         0.1
 (Enter /home/dustin/Applications/g09/g09/l702.exe)
 L702 exits ... SP integral derivatives will be done elsewhere.
 Leave Link  702 at Tue Apr  5 13:38:25 2016, MaxMem=    33554432 cpu:         0.0
 (Enter /home/dustin/Applications/g09/g09/l703.exe)
 Compute integral first derivatives, UseDBF=F ICtDFT=           0.
 Integral derivatives from FoFJK, PRISM(SPDF).
 Calling FoFJK, ICntrl=      2127 FMM=F ISym2X=0 I1Cent= 0 IOpClX= 0 NMat=1 NMatS=1 NMatT=0.
 FoFJK:  IHMeth= 1 ICntrl=    2127 DoSepK=F KAlg= 0 I1Cent=   0 FoldK=F
 IRaf=         0 NMat=   1 IRICut=       1 DoRegI=T DoRafI=F ISym2E= 0.
 FoFCou: FMM=F IPFlag=           0 FMFlag=      100000 FMFlg1=         800
         NFxFlg=           0 DoJE=F BraDBF=F KetDBF=F FulRan=T
         wScrn=  0.000000 ICntrl=    2127 IOpCl=  0 I1Cent=           0 NGrid=           0
         NMat0=    1 NMatS0=      1 NMatT0=    0 NMatD0=    1 NMtDS0=    0 NMtDT0=    0
 Symmetry not used in FoFCou.
 Leave Link  703 at Tue Apr  5 13:38:26 2016, MaxMem=    33554432 cpu:         0.7
 (Enter /home/dustin/Applications/g09/g09/l716.exe)
 Dipole        =-3.59904117D-01-1.27248075D-03 5.42313583D-02
 ***** Axes restored to original set *****
 -------------------------------------------------------------------
 Center     Atomic                   Forces (Hartrees/Bohr)
 Number     Number              X              Y              Z
 -------------------------------------------------------------------
      1        6          -0.009192731   -0.004163831   -0.006661936
      2        6           0.016303202   -0.003066824    0.011667172
      3        6           0.014096222    0.002007467    0.011021630
      4        6          -0.003264918    0.005365791   -0.005251703
      5        1           0.000176868    0.000311097    0.000466146
      6        1          -0.003190065   -0.000632921   -0.001503063
      7        1          -0.004127031    0.000311032   -0.001331786
      8        1           0.000602459    0.000190384    0.000230934
      9       16          -0.011404006   -0.000322196   -0.008637395
 -------------------------------------------------------------------
 Cartesian Forces:  Max     0.016303202 RMS     0.006627904
 Leave Link  716 at Tue Apr  5 13:38:26 2016, MaxMem=    33554432 cpu:         0.0
 (Enter /home/dustin/Applications/g09/g09/l103.exe)

 GradGradGradGradGradGradGradGradGradGradGradGradGradGradGradGradGradGrad
 Berny optimization.
 Using GEDIIS/GDIIS optimizer.
 FormGI is forming the generalized inverse of G from B-inverse, IUseBI=4.
 Internal  Forces:  Max     0.006423257 RMS     0.003108521
 Search for a local minimum.
 Step number   2 out of a maximum of   48
 All quantities printed in internal units (Hartrees-Bohrs-Radians)
 RMS Force = .31085D-02 SwitMx=.10000D-02 MixMth= 1
 Mixed Optimization -- RFO/linear search
 Update second derivatives using D2CorX and points    1    2
 DE= -7.06D-03 DEPred=-1.35D-02 R= 5.24D-01
 TightC=F SS=  1.41D+00  RLast= 6.39D-01 DXNew= 5.0454D-01 1.9181D+00
 Trust test= 5.24D-01 RLast= 6.39D-01 DXMaxT set to 5.05D-01
 ITU=  1  0
 Use linear search instead of GDIIS.
     Eigenvalues ---    0.01627   0.01872   0.01894   0.02015   0.02187
     Eigenvalues ---    0.05112   0.13443   0.15876   0.15975   0.15995
     Eigenvalues ---    0.22003   0.22182   0.25236   0.28401   0.35940
     Eigenvalues ---    0.37230   0.37230   0.37232   0.39156   0.40863
     Eigenvalues ---    0.49656
 RFO step:  Lambda=-3.52643771D-03 EMin= 1.62733497D-02
 Quartic linear search produced a step of -0.19960.
 Iteration  1 RMS(Cart)=  0.02907961 RMS(Int)=  0.00230195
 Iteration  2 RMS(Cart)=  0.00148865 RMS(Int)=  0.00176480
 Iteration  3 RMS(Cart)=  0.00000119 RMS(Int)=  0.00176480
 Iteration  4 RMS(Cart)=  0.00000000 RMS(Int)=  0.00176480
 ITry= 1 IFail=0 DXMaxC= 1.07D-01 DCOld= 1.00D+10 DXMaxT= 5.05D-01 DXLimC= 3.00D+00 Rises=F
 Variable       Old X    -DE/DX   Delta X   Delta X   Delta X     New X
                                 (Linear)    (Quad)   (Total)
    R1        2.58933  -0.00642   0.01364  -0.04974  -0.03607   2.55326
    R2        2.70801   0.00410  -0.00396   0.01858   0.01454   2.72255
    R3        2.04145   0.00039  -0.00388   0.01169   0.00781   2.04926
    R4        2.03382   0.00062  -0.00236   0.00793   0.00557   2.03940
    R5        3.37851   0.00526  -0.00965   0.04140   0.03185   3.41036
    R6        2.58442  -0.00511  -0.00026  -0.00726  -0.00761   2.57681
    R7        2.03497   0.00002  -0.00259   0.00729   0.00470   2.03967
    R8        3.37826   0.00617  -0.00756   0.03842   0.03087   3.40913
    R9        2.04248   0.00031  -0.00409   0.01210   0.00802   2.05049
    A1        1.97662   0.00206  -0.00070   0.00750   0.00781   1.98443
    A2        2.14282  -0.00052   0.00245  -0.00614  -0.00457   2.13825
    A3        2.16246  -0.00146  -0.00151   0.00043  -0.00196   2.16049
    A4        2.20321   0.00434  -0.00413   0.04102   0.03274   2.23595
    A5        1.94260   0.00052  -0.00493   0.01799   0.01110   1.95369
    A6        2.12961  -0.00419   0.01060  -0.04300  -0.03639   2.09322
    A7        2.21285   0.00311  -0.00803   0.04507   0.03413   2.24698
    A8        1.93875   0.00125  -0.00020   0.00695   0.00563   1.94439
    A9        2.12438  -0.00376   0.00967  -0.03936  -0.03258   2.09180
   A10        1.98748  -0.00067  -0.00084  -0.00208  -0.00182   1.98566
   A11        2.15137   0.00057  -0.00031   0.00477   0.00388   2.15525
   A12        2.14330   0.00016   0.00134  -0.00195  -0.00119   2.14211
   A13        1.57017  -0.00221   0.00423  -0.02000  -0.01366   1.55652
    D1       -3.10175  -0.00056   0.01914  -0.06999  -0.05341   3.12803
    D2       -0.09254   0.00468   0.04464   0.06189   0.10665   0.01411
    D3        0.09241  -0.00215   0.00620  -0.10665  -0.10209  -0.00968
    D4        3.10162   0.00309   0.03170   0.02523   0.05797  -3.12360
    D5        0.00747  -0.00032  -0.00144  -0.01872  -0.01996  -0.01249
    D6       -3.08643  -0.00159  -0.01343  -0.03579  -0.04866  -3.13509
    D7        3.09582   0.00132   0.01164   0.01819   0.02935   3.12517
    D8        0.00192   0.00005  -0.00036   0.00112   0.00065   0.00257
    D9        0.11491  -0.00605  -0.05715  -0.06830  -0.12445  -0.00954
   D10        3.13060  -0.00034  -0.03295   0.06426   0.02658  -3.12601
   D11        3.09471   0.00088  -0.01789   0.07474   0.05842  -3.13005
   D12       -0.09432   0.00216  -0.00595   0.09193   0.08703  -0.00729
   D13        0.08112  -0.00417  -0.04256  -0.03378  -0.07638   0.00473
   D14       -3.10792  -0.00290  -0.03061  -0.01659  -0.04778   3.12749
   D15       -0.11037   0.00578   0.05688   0.05872   0.11286   0.00249
   D16       -3.13149   0.00046   0.03372  -0.05038  -0.01373   3.13796
         Item               Value     Threshold  Converged?
 Maximum Force            0.006423     0.000450     NO 
 RMS     Force            0.003109     0.000300     NO 
 Maximum Displacement     0.106970     0.001800     NO 
 RMS     Displacement     0.029234     0.001200     NO 
 Predicted change in Energy=-2.333391D-03
 Lowest energy point so far.  Saving SCF results.
 GradGradGradGradGradGradGradGradGradGradGradGradGradGradGradGradGradGrad

 Leave Link  103 at Tue Apr  5 13:38:26 2016, MaxMem=    33554432 cpu:         0.0
 (Enter /home/dustin/Applications/g09/g09/l202.exe)
                          Input orientation:                          
 ---------------------------------------------------------------------
 Center     Atomic      Atomic             Coordinates (Angstroms)
 Number     Number       Type             X           Y           Z
 ---------------------------------------------------------------------
      1          6           0        0.884687   -0.698825   -0.006872
      2          6           0       -0.355917   -1.233626    0.013947
      3          6           0       -0.348903    1.299541    0.052067
      4          6           0        0.894954    0.741528    0.023507
      5          1           0        1.803689    1.334237    0.006641
      6          1           0       -0.620455    2.344047    0.068132
      7          1           0       -0.632187   -2.276530   -0.012596
      8          1           0        1.781236   -1.307585   -0.046644
      9         16           0       -1.637236    0.036715    0.050599
 ---------------------------------------------------------------------
                    Distance matrix (angstroms):
                    1          2          3          4          5
     1  C    0.000000
     2  C    1.351127   0.000000
     3  C    2.349188   2.533463   0.000000
     4  C    1.440711   2.337949   1.363589   0.000000
     5  H    2.231163   3.355276   2.153350   1.085074   0.000000
     6  H    3.395608   3.587849   1.079349   2.206020   2.626780
     7  H    2.188628   1.079203   3.587856   3.382623   4.355629
     8  H    1.084422   2.139292   3.368136   2.233670   2.642455
     9  S    2.627626   1.804684   1.804033   2.628590   3.677698
                    6          7          8          9
     6  H    0.000000
     7  H    4.621297   0.000000
     8  H    4.372152   2.600889   0.000000
     9  S    2.521494   2.522939   3.674582   0.000000
 Stoichiometry    C4H4S
 Framework group  C1[X(C4H4S)]
 Deg. of freedom    21
 Full point group                 C1      NOp   1
 RotChk:  IX=1 Diff= 2.52D-02
 Largest Abelian subgroup         C1      NOp   1
 Largest concise Abelian subgroup C1      NOp   1
                         Standard orientation:                         
 ---------------------------------------------------------------------
 Center     Atomic      Atomic             Coordinates (Angstroms)
 Number     Number       Type             X           Y           Z
 ---------------------------------------------------------------------
      1          6           0       -1.290697    0.711827   -0.001836
      2          6           0       -0.057285    1.263345    0.006331
      3          6           0       -0.029266   -1.269957    0.001070
      4          6           0       -1.280887   -0.728839    0.003985
      5          1           0       -2.181657   -1.333718   -0.007062
      6          1           0        0.256669   -2.310721   -0.005581
      7          1           0        0.204299    2.310279   -0.007159
      8          1           0       -2.195986    1.308685   -0.015368
      9         16           0        1.241593    0.010451   -0.001384
 ---------------------------------------------------------------------
 Rotational constants (GHZ):      7.7459397      5.1252708      3.0844481
 Leave Link  202 at Tue Apr  5 13:38:26 2016, MaxMem=    33554432 cpu:         0.0
 (Enter /home/dustin/Applications/g09/g09/l301.exe)
 Standard basis: 3-21G (6D, 7F)
 Ernie: Thresh=  0.10000D-02 Tol=  0.10000D-05 Strict=F.
 There are    57 symmetry adapted cartesian basis functions of A   symmetry.
 There are    57 symmetry adapted basis functions of A   symmetry.
    57 basis functions,    99 primitive gaussians,    57 cartesian basis functions
    22 alpha electrons       22 beta electrons
       nuclear repulsion energy       198.2852333689 Hartrees.
 IExCor=  402 DFT=T Ex+Corr=B3LYP ExCW=0 ScaHFX=  0.200000
 ScaDFX=  0.800000  0.720000  1.000000  0.810000 ScalE2=  1.000000  1.000000
 IRadAn=      0 IRanWt=     -1 IRanGd=            0 ICorTp=0 IEmpDi=  4
 NAtoms=    9 NActive=    9 NUniq=    9 SFac= 1.00D+00 NAtFMM=   60 NAOKFM=F Big=F
 Integral buffers will be    131072 words long.
 Raffenetti 2 integral format.
 Two-electron integral symmetry is turned on.
 Leave Link  301 at Tue Apr  5 13:38:26 2016, MaxMem=    33554432 cpu:         0.0
 (Enter /home/dustin/Applications/g09/g09/l302.exe)
 NPDir=0 NMtPBC=     1 NCelOv=     1 NCel=       1 NClECP=     1 NCelD=      1
         NCelK=      1 NCelE2=     1 NClLst=     1 CellRange=     0.0.
 One-electron integrals computed using PRISM.
 NBasis=    57 RedAO= T EigKep=  5.04D-03  NBF=    57
 NBsUse=    57 1.00D-06 EigRej= -1.00D+00 NBFU=    57
 Precomputing XC quadrature grid using
 IXCGrd= 4 IRadAn=           0 IRanWt=          -1 IRanGd=           0 AccXCQ= 0.00D+00.
 Generated NRdTot=       0 NPtTot=           0 NUsed=           0 NTot=          32
 NSgBfM=    57    57    57    57    57 MxSgAt=     9 MxSgA2=     9.
 Leave Link  302 at Tue Apr  5 13:38:26 2016, MaxMem=    33554432 cpu:         0.1
 (Enter /home/dustin/Applications/g09/g09/l303.exe)
 DipDrv:  MaxL=1.
 Leave Link  303 at Tue Apr  5 13:38:26 2016, MaxMem=    33554432 cpu:         0.0
 (Enter /home/dustin/Applications/g09/g09/l401.exe)
 Initial guess from the checkpoint file:  "freq.chk"
 B after Tr=     0.000000    0.000000    0.000000
         Rot=    0.999999    0.000025   -0.000077   -0.001272 Ang=   0.15 deg.
 Guess basis will be translated and rotated to current coordinates.
 JPrj=2 DoOrth=T DoCkMO=T.
 Generating alternative initial guess.
 ExpMin= 1.42D-01 ExpMax= 1.21D+03 ExpMxC= 1.21D+03 IAcc=1 IRadAn=         1 AccDes= 0.00D+00
 Harris functional with IExCor=  402 and IRadAn=       1 diagonalized for initial guess.
 HarFok:  IExCor=  402 AccDes= 0.00D+00 IRadAn=         1 IDoV= 1 UseB2=F ITyADJ=14
 ICtDFT=  3500011 ScaDFX=  1.000000  1.000000  1.000000  1.000000
 FoFCou: FMM=F IPFlag=           0 FMFlag=      100000 FMFlg1=           0
         NFxFlg=           0 DoJE=T BraDBF=F KetDBF=T FulRan=T
         wScrn=  0.000000 ICntrl=     500 IOpCl=  0 I1Cent=   200000004 NGrid=           0
         NMat0=    1 NMatS0=      1 NMatT0=    0 NMatD0=    1 NMtDS0=    0 NMtDT0=    0
 Petite list used in FoFCou.
 Harris En= -550.143713998727    
 Leave Link  401 at Tue Apr  5 13:38:26 2016, MaxMem=    33554432 cpu:         0.2
 (Enter /home/dustin/Applications/g09/g09/l502.exe)
 Closed shell SCF:
 Using DIIS extrapolation, IDIIS=  1040.
 Integral symmetry usage will be decided dynamically.
 Keep R1 ints in memory in canonical form, NReq=2273549.
 IVT=       29080 IEndB=       29080 NGot=    33554432 MDV=    32158322
 LenX=    32158322 LenY=    32154632
 Requested convergence on RMS density matrix=1.00D-08 within 128 cycles.
 Requested convergence on MAX density matrix=1.00D-06.
 Requested convergence on             energy=1.00D-06.
 No special actions if energy rises.
 FoFCou: FMM=F IPFlag=           0 FMFlag=           0 FMFlg1=           0
         NFxFlg=           0 DoJE=F BraDBF=F KetDBF=F FulRan=T
         wScrn=  0.000000 ICntrl=     600 IOpCl=  0 I1Cent=           0 NGrid=           0
         NMat0=    1 NMatS0=   1653 NMatT0=    0 NMatD0=    1 NMtDS0=    0 NMtDT0=    0
 Symmetry not used in FoFCou.
 Integral accuracy reduced to 1.0D-05 until final iterations.

 Cycle   1  Pass 0  IDiag  1:
 E= -550.179541511622    
 DIIS: error= 7.43D-03 at cycle   1 NSaved=   1.
 NSaved= 1 IEnMin= 1 EnMin= -550.179541511622     IErMin= 1 ErrMin= 7.43D-03
 ErrMax= 7.43D-03  0.00D+00 EMaxC= 1.00D-01 BMatC= 2.57D-03 BMatP= 2.57D-03
 IDIUse=3 WtCom= 9.26D-01 WtEn= 7.43D-02
 Coeff-Com:  0.100D+01
 Coeff-En:   0.100D+01
 Coeff:      0.100D+01
 Gap=     0.953 Goal=   None    Shift=    0.000
 GapD=    0.953 DampG=2.000 DampE=1.000 DampFc=2.0000 IDamp=-1.
 RMSDP=1.79D-03 MaxDP=1.98D-02              OVMax= 1.98D-02

 Cycle   2  Pass 0  IDiag  1:
 E= -550.183808023405     Delta-E=       -0.004266511783 Rises=F Damp=F
 DIIS: error= 5.70D-04 at cycle   2 NSaved=   2.
 NSaved= 2 IEnMin= 2 EnMin= -550.183808023405     IErMin= 2 ErrMin= 5.70D-04
 ErrMax= 5.70D-04  0.00D+00 EMaxC= 1.00D-01 BMatC= 5.51D-05 BMatP= 2.57D-03
 IDIUse=3 WtCom= 9.94D-01 WtEn= 5.70D-03
 Coeff-Com: -0.201D-01 0.102D+01
 Coeff-En:   0.000D+00 0.100D+01
 Coeff:     -0.200D-01 0.102D+01
 Gap=     0.229 Goal=   None    Shift=    0.000
 RMSDP=4.89D-04 MaxDP=4.97D-03 DE=-4.27D-03 OVMax= 6.67D-03

 Cycle   3  Pass 0  IDiag  1:
 E= -550.183781234488     Delta-E=        0.000026788917 Rises=F Damp=F
 DIIS: error= 1.26D-03 at cycle   3 NSaved=   3.
 NSaved= 3 IEnMin= 2 EnMin= -550.183808023405     IErMin= 2 ErrMin= 5.70D-04
 ErrMax= 1.26D-03  0.00D+00 EMaxC= 1.00D-01 BMatC= 1.01D-04 BMatP= 5.51D-05
 IDIUse=3 WtCom= 2.20D-01 WtEn= 7.80D-01
 Coeff-Com: -0.290D-01 0.608D+00 0.421D+00
 Coeff-En:   0.000D+00 0.572D+00 0.428D+00
 Coeff:     -0.636D-02 0.580D+00 0.427D+00
 Gap=     0.228 Goal=   None    Shift=    0.000
 RMSDP=2.79D-04 MaxDP=3.60D-03 DE= 2.68D-05 OVMax= 5.14D-03

 Cycle   4  Pass 0  IDiag  1:
 E= -550.183895986504     Delta-E=       -0.000114752016 Rises=F Damp=F
 DIIS: error= 3.23D-04 at cycle   4 NSaved=   4.
 NSaved= 4 IEnMin= 4 EnMin= -550.183895986504     IErMin= 4 ErrMin= 3.23D-04
 ErrMax= 3.23D-04  0.00D+00 EMaxC= 1.00D-01 BMatC= 6.07D-06 BMatP= 5.51D-05
 IDIUse=3 WtCom= 9.97D-01 WtEn= 3.23D-03
 Coeff-Com: -0.116D-01 0.168D+00 0.229D+00 0.615D+00
 Coeff-En:   0.000D+00 0.000D+00 0.000D+00 0.100D+01
 Coeff:     -0.115D-01 0.167D+00 0.228D+00 0.616D+00
 Gap=     0.228 Goal=   None    Shift=    0.000
 RMSDP=6.81D-05 MaxDP=6.97D-04 DE=-1.15D-04 OVMax= 1.87D-03

 Cycle   5  Pass 0  IDiag  1:
 E= -550.183902075245     Delta-E=       -0.000006088741 Rises=F Damp=F
 DIIS: error= 1.42D-04 at cycle   5 NSaved=   5.
 NSaved= 5 IEnMin= 5 EnMin= -550.183902075245     IErMin= 5 ErrMin= 1.42D-04
 ErrMax= 1.42D-04  0.00D+00 EMaxC= 1.00D-01 BMatC= 1.22D-06 BMatP= 6.07D-06
 IDIUse=3 WtCom= 9.99D-01 WtEn= 1.42D-03
 Coeff-Com: -0.397D-02 0.331D-01 0.952D-01 0.393D+00 0.483D+00
 Coeff-En:   0.000D+00 0.000D+00 0.000D+00 0.113D+00 0.887D+00
 Coeff:     -0.396D-02 0.331D-01 0.951D-01 0.392D+00 0.483D+00
 Gap=     0.228 Goal=   None    Shift=    0.000
 RMSDP=2.28D-05 MaxDP=3.29D-04 DE=-6.09D-06 OVMax= 5.45D-04

 Cycle   6  Pass 0  IDiag  1:
 E= -550.183903389428     Delta-E=       -0.000001314183 Rises=F Damp=F
 DIIS: error= 1.72D-05 at cycle   6 NSaved=   6.
 NSaved= 6 IEnMin= 6 EnMin= -550.183903389428     IErMin= 6 ErrMin= 1.72D-05
 ErrMax= 1.72D-05  0.00D+00 EMaxC= 1.00D-01 BMatC= 1.83D-08 BMatP= 1.22D-06
 IDIUse=1 WtCom= 1.00D+00 WtEn= 0.00D+00
 Coeff-Com:  0.162D-04-0.686D-02 0.682D-02 0.575D-01 0.139D+00 0.803D+00
 Coeff:      0.162D-04-0.686D-02 0.682D-02 0.575D-01 0.139D+00 0.803D+00
 Gap=     0.228 Goal=   None    Shift=    0.000
 RMSDP=5.42D-06 MaxDP=4.93D-05 DE=-1.31D-06 OVMax= 9.45D-05

 Initial convergence to 1.0D-05 achieved.  Increase integral accuracy.
 Cycle   7  Pass 1  IDiag  1:
 E= -550.183921069036     Delta-E=       -0.000017679608 Rises=F Damp=F
 DIIS: error= 1.92D-05 at cycle   1 NSaved=   1.
 NSaved= 1 IEnMin= 1 EnMin= -550.183921069036     IErMin= 1 ErrMin= 1.92D-05
 ErrMax= 1.92D-05  0.00D+00 EMaxC= 1.00D-01 BMatC= 2.31D-08 BMatP= 2.31D-08
 IDIUse=1 WtCom= 1.00D+00 WtEn= 0.00D+00
 Coeff-Com:  0.100D+01
 Coeff:      0.100D+01
 Gap=     0.228 Goal=   None    Shift=    0.000
 RMSDP=5.42D-06 MaxDP=4.93D-05 DE=-1.77D-05 OVMax= 1.18D-04

 Cycle   8  Pass 1  IDiag  1:
 E= -550.183921085309     Delta-E=       -0.000000016272 Rises=F Damp=F
 DIIS: error= 1.72D-05 at cycle   2 NSaved=   2.
 NSaved= 2 IEnMin= 2 EnMin= -550.183921085309     IErMin= 2 ErrMin= 1.72D-05
 ErrMax= 1.72D-05  0.00D+00 EMaxC= 1.00D-01 BMatC= 1.61D-08 BMatP= 2.31D-08
 IDIUse=1 WtCom= 1.00D+00 WtEn= 0.00D+00
 Coeff-Com:  0.436D+00 0.564D+00
 Coeff:      0.436D+00 0.564D+00
 Gap=     0.228 Goal=   None    Shift=    0.000
 RMSDP=4.66D-06 MaxDP=6.32D-05 DE=-1.63D-08 OVMax= 8.34D-05

 Cycle   9  Pass 1  IDiag  1:
 E= -550.183921098788     Delta-E=       -0.000000013479 Rises=F Damp=F
 DIIS: error= 9.76D-06 at cycle   3 NSaved=   3.
 NSaved= 3 IEnMin= 3 EnMin= -550.183921098788     IErMin= 3 ErrMin= 9.76D-06
 ErrMax= 9.76D-06  0.00D+00 EMaxC= 1.00D-01 BMatC= 5.04D-09 BMatP= 1.61D-08
 IDIUse=1 WtCom= 1.00D+00 WtEn= 0.00D+00
 Coeff-Com:  0.449D-01 0.350D+00 0.605D+00
 Coeff:      0.449D-01 0.350D+00 0.605D+00
 Gap=     0.228 Goal=   None    Shift=    0.000
 RMSDP=1.77D-06 MaxDP=1.67D-05 DE=-1.35D-08 OVMax= 3.98D-05

 Cycle  10  Pass 1  IDiag  1:
 E= -550.183921104147     Delta-E=       -0.000000005360 Rises=F Damp=F
 DIIS: error= 3.11D-06 at cycle   4 NSaved=   4.
 NSaved= 4 IEnMin= 4 EnMin= -550.183921104147     IErMin= 4 ErrMin= 3.11D-06
 ErrMax= 3.11D-06  0.00D+00 EMaxC= 1.00D-01 BMatC= 5.51D-10 BMatP= 5.04D-09
 IDIUse=1 WtCom= 1.00D+00 WtEn= 0.00D+00
 Coeff-Com: -0.698D-02 0.169D+00 0.356D+00 0.482D+00
 Coeff:     -0.698D-02 0.169D+00 0.356D+00 0.482D+00
 Gap=     0.228 Goal=   None    Shift=    0.000
 RMSDP=4.71D-07 MaxDP=6.11D-06 DE=-5.36D-09 OVMax= 1.24D-05

 Cycle  11  Pass 1  IDiag  1:
 E= -550.183921104711     Delta-E=       -0.000000000563 Rises=F Damp=F
 DIIS: error= 5.81D-07 at cycle   5 NSaved=   5.
 NSaved= 5 IEnMin= 5 EnMin= -550.183921104711     IErMin= 5 ErrMin= 5.81D-07
 ErrMax= 5.81D-07  0.00D+00 EMaxC= 1.00D-01 BMatC= 2.24D-11 BMatP= 5.51D-10
 IDIUse=1 WtCom= 1.00D+00 WtEn= 0.00D+00
 Coeff-Com: -0.625D-02 0.599D-01 0.126D+00 0.240D+00 0.580D+00
 Coeff:     -0.625D-02 0.599D-01 0.126D+00 0.240D+00 0.580D+00
 Gap=     0.228 Goal=   None    Shift=    0.000
 RMSDP=1.11D-07 MaxDP=1.26D-06 DE=-5.63D-10 OVMax= 2.71D-06

 Cycle  12  Pass 1  IDiag  1:
 E= -550.183921104730     Delta-E=       -0.000000000020 Rises=F Damp=F
 DIIS: error= 2.48D-07 at cycle   6 NSaved=   6.
 NSaved= 6 IEnMin= 6 EnMin= -550.183921104730     IErMin= 6 ErrMin= 2.48D-07
 ErrMax= 2.48D-07  0.00D+00 EMaxC= 1.00D-01 BMatC= 2.52D-12 BMatP= 2.24D-11
 IDIUse=1 WtCom= 1.00D+00 WtEn= 0.00D+00
 Coeff-Com: -0.232D-02 0.211D-01 0.412D-01 0.990D-01 0.334D+00 0.507D+00
 Coeff:     -0.232D-02 0.211D-01 0.412D-01 0.990D-01 0.334D+00 0.507D+00
 Gap=     0.228 Goal=   None    Shift=    0.000
 RMSDP=4.97D-08 MaxDP=3.88D-07 DE=-1.96D-11 OVMax= 9.63D-07

 Cycle  13  Pass 1  IDiag  1:
 E= -550.183921104736     Delta-E=       -0.000000000005 Rises=F Damp=F
 DIIS: error= 7.17D-08 at cycle   7 NSaved=   7.
 NSaved= 7 IEnMin= 7 EnMin= -550.183921104736     IErMin= 7 ErrMin= 7.17D-08
 ErrMax= 7.17D-08  0.00D+00 EMaxC= 1.00D-01 BMatC= 2.93D-13 BMatP= 2.52D-12
 IDIUse=1 WtCom= 1.00D+00 WtEn= 0.00D+00
 Coeff-Com: -0.727D-03 0.491D-02 0.832D-02 0.277D-01 0.118D+00 0.300D+00
 Coeff-Com:  0.543D+00
 Coeff:     -0.727D-03 0.491D-02 0.832D-02 0.277D-01 0.118D+00 0.300D+00
 Coeff:      0.543D+00
 Gap=     0.228 Goal=   None    Shift=    0.000
 RMSDP=1.28D-08 MaxDP=1.72D-07 DE=-5.23D-12 OVMax= 2.50D-07

 Cycle  14  Pass 1  IDiag  1:
 E= -550.183921104735     Delta-E=        0.000000000000 Rises=F Damp=F
 DIIS: error= 1.03D-08 at cycle   8 NSaved=   8.
 NSaved= 8 IEnMin= 7 EnMin= -550.183921104736     IErMin= 8 ErrMin= 1.03D-08
 ErrMax= 1.03D-08  0.00D+00 EMaxC= 1.00D-01 BMatC= 8.26D-15 BMatP= 2.93D-13
 IDIUse=1 WtCom= 1.00D+00 WtEn= 0.00D+00
 Coeff-Com: -0.126D-03 0.343D-03 0.490D-03 0.296D-02 0.172D-01 0.780D-01
 Coeff-Com:  0.191D+00 0.710D+00
 Coeff:     -0.126D-03 0.343D-03 0.490D-03 0.296D-02 0.172D-01 0.780D-01
 Coeff:      0.191D+00 0.710D+00
 Gap=     0.228 Goal=   None    Shift=    0.000
 RMSDP=3.06D-09 MaxDP=3.73D-08 DE= 4.55D-13 OVMax= 4.34D-08

 SCF Done:  E(RB3LYP) =  -550.183921105     A.U. after   14 cycles
            NFock= 14  Conv=0.31D-08     -V/T= 2.0048
 KE= 5.475367933468D+02 PE=-1.694768613076D+03 EE= 3.987626652553D+02
 Leave Link  502 at Tue Apr  5 13:38:30 2016, MaxMem=    33554432 cpu:         3.3
 (Enter /home/dustin/Applications/g09/g09/l701.exe)
 Compute integral first derivatives.
 ... and contract with generalized density number  0.
 Leave Link  701 at Tue Apr  5 13:38:30 2016, MaxMem=    33554432 cpu:         0.1
 (Enter /home/dustin/Applications/g09/g09/l702.exe)
 L702 exits ... SP integral derivatives will be done elsewhere.
 Leave Link  702 at Tue Apr  5 13:38:30 2016, MaxMem=    33554432 cpu:         0.0
 (Enter /home/dustin/Applications/g09/g09/l703.exe)
 Compute integral first derivatives, UseDBF=F ICtDFT=           0.
 Integral derivatives from FoFJK, PRISM(SPDF).
 Calling FoFJK, ICntrl=      2127 FMM=F ISym2X=0 I1Cent= 0 IOpClX= 0 NMat=1 NMatS=1 NMatT=0.
[...]
  31        2PY         0.01402  -0.00013   0.00000   0.00751   0.01200
  32        2PZ         0.00000   0.00000   0.01297   0.00000   0.00000
  33        3S          0.04064   0.00155   0.00000  -0.09072   0.03536
  34        3PX         0.02037   0.00172   0.00000  -0.00270   0.00395
  35        3PY         0.00264  -0.00301   0.00000   0.01276   0.00362
  36        3PZ         0.00000   0.00000   0.03769   0.00000   0.00000
  37 5   H  1S         -0.00011   0.00000   0.00000  -0.00313  -0.00432
  38        2S         -0.00304   0.00002   0.00000  -0.01430  -0.00993
  39 6   H  1S          0.00469   0.05812   0.00000   0.06305   0.00544
  40        2S          0.00346   0.03148   0.00000   0.05852   0.00512
  41 7   H  1S          0.00000   0.00000   0.00000   0.00002   0.00000
  42        2S          0.00000   0.00006   0.00000   0.00049   0.00007
  43 8   H  1S          0.00000   0.00000   0.00000   0.00006   0.00008
  44        2S          0.00003   0.00009   0.00000   0.00158   0.00080
  45 9   S  1S          0.00000   0.00000   0.00000  -0.00001  -0.00003
  46        2S         -0.00005  -0.00005   0.00000   0.00085   0.00028
  47        2PX        -0.00009  -0.00009   0.00000  -0.00165  -0.00047
  48        2PY        -0.00012  -0.00008   0.00000  -0.00164  -0.00137
  49        2PZ         0.00000   0.00000  -0.00001   0.00000   0.00000
  50        3S          0.00274   0.00329   0.00000   0.00078   0.00444
  51        3PX         0.00913   0.01102   0.00000   0.03766   0.00701
  52        3PY         0.01419   0.00799   0.00000   0.03281   0.03543
  53        3PZ         0.00000   0.00000   0.00232   0.00000   0.00000
  54        4S         -0.00366  -0.00198   0.00000  -0.09084  -0.01268
  55        4PX         0.00378   0.00791   0.00000   0.02808  -0.00044
  56        4PY         0.01078   0.00194   0.00000   0.01261   0.02233
  57        4PZ         0.00000   0.00000   0.00682   0.00000   0.00000
                          26        27        28        29        30
  26        3PY         0.27117
  27        3PZ         0.00000   0.31227
  28 4   C  1S          0.00097   0.00000   2.03490
  29        2S          0.00311   0.00000   0.02294   0.12565
  30        2PX         0.00983   0.00000   0.00000   0.00000   0.32466
  31        2PY        -0.00298   0.00000   0.00000   0.00000   0.00000
  32        2PZ         0.00000   0.03952   0.00000   0.00000   0.00000
  33        3S         -0.01759   0.00000  -0.07704   0.17169   0.00000
  34        3PX        -0.00665   0.00000   0.00000   0.00000   0.09840
  35        3PY        -0.01708   0.00000   0.00000   0.00000   0.00000
  36        3PZ         0.00000   0.10616   0.00000   0.00000   0.00000
  37 5   H  1S          0.00001   0.00000  -0.00137   0.01245   0.04477
  38        2S          0.00003   0.00000  -0.00080   0.00971   0.02946
  39 6   H  1S          0.07254   0.00000   0.00000  -0.00002  -0.00005
  40        2S          0.05963   0.00000   0.00019  -0.00103  -0.00134
  41 7   H  1S          0.00004   0.00000   0.00000   0.00000   0.00000
  42        2S          0.00127   0.00000   0.00000   0.00002   0.00002
  43 8   H  1S          0.00006   0.00000   0.00000  -0.00001  -0.00001
  44        2S          0.00182   0.00000   0.00018  -0.00088  -0.00059
  45 9   S  1S          0.00012   0.00000   0.00000   0.00000   0.00000
  46        2S         -0.00276   0.00000   0.00000   0.00000   0.00000
  47        2PX        -0.00307   0.00000   0.00000   0.00000   0.00000
  48        2PY        -0.00161   0.00000   0.00000   0.00000   0.00000
  49        2PZ         0.00000  -0.00052   0.00000   0.00000   0.00000
  50        3S          0.01210   0.00000   0.00000  -0.00001  -0.00005
  51        3PX         0.04524   0.00000   0.00000  -0.00009  -0.00042
  52        3PY         0.01607   0.00000   0.00000   0.00000  -0.00009
  53        3PZ         0.00000   0.01574   0.00000   0.00000   0.00000
  54        4S         -0.02716   0.00000   0.00002  -0.00010  -0.00098
  55        4PX         0.03166   0.00000   0.00040  -0.00255  -0.00645
  56        4PY        -0.00122   0.00000   0.00004  -0.00009  -0.00141
  57        4PZ         0.00000   0.02990   0.00000   0.00000   0.00000
                          31        32        33        34        35
  31        2PY         0.31870
  32        2PZ         0.00000   0.25852
  33        3S          0.00000   0.00000   0.71902
  34        3PX         0.00000   0.00000   0.00000   0.13750
  35        3PY         0.09286   0.00000   0.00000   0.00000   0.12009
  36        3PZ         0.00000   0.13521   0.00000   0.00000   0.00000
  37 5   H  1S          0.01876   0.00000   0.06529   0.04924   0.02288
  38        2S          0.01214   0.00000   0.05595   0.04747   0.02191
  39 6   H  1S         -0.00005   0.00000  -0.00162  -0.00068  -0.00222
  40        2S         -0.00206   0.00000  -0.00852  -0.00166  -0.00762
  41 7   H  1S          0.00000   0.00000   0.00005   0.00000   0.00008
  42        2S          0.00010   0.00000   0.00074   0.00004   0.00131
  43 8   H  1S         -0.00008   0.00000  -0.00275  -0.00003  -0.00265
  44        2S         -0.00260   0.00000  -0.01403   0.00007  -0.00783
  45 9   S  1S          0.00000   0.00000   0.00000  -0.00002   0.00000
  46        2S          0.00000   0.00000   0.00005   0.00055   0.00013
  47        2PX         0.00000   0.00000   0.00020   0.00051   0.00005
  48        2PY         0.00000   0.00000   0.00006   0.00021  -0.00002
  49        2PZ         0.00000   0.00000   0.00000   0.00000   0.00000
  50        3S         -0.00001   0.00000  -0.00042  -0.00284  -0.00079
  51        3PX        -0.00004   0.00000  -0.00878  -0.01212  -0.00052
  52        3PY         0.00000   0.00000  -0.00113  -0.00413   0.00061
  53        3PZ         0.00000  -0.00006   0.00000   0.00000   0.00000
  54        4S         -0.00023   0.00000   0.01056   0.00221  -0.00201
  55        4PX        -0.00057   0.00000  -0.02605  -0.02367  -0.00161
  56        4PY        -0.00014   0.00000  -0.00249  -0.00706   0.00229
  57        4PZ         0.00000  -0.00225   0.00000   0.00000   0.00000
                          36        37        38        39        40
  36        3PZ         0.25540
  37 5   H  1S          0.00000   0.18733
  38        2S          0.00000   0.08875   0.11053
  39 6   H  1S          0.00000   0.00000  -0.00020   0.18480
  40        2S          0.00000  -0.00028  -0.00097   0.07921   0.08762
  41 7   H  1S          0.00000   0.00000   0.00000   0.00000   0.00000
  42        2S          0.00000   0.00000  -0.00004   0.00000  -0.00002
  43 8   H  1S          0.00000   0.00000  -0.00023   0.00000   0.00000
  44        2S          0.00000  -0.00023  -0.00115   0.00000  -0.00004
  45 9   S  1S          0.00000   0.00000   0.00000   0.00000   0.00000
  46        2S          0.00000   0.00000   0.00000   0.00000   0.00009
  47        2PX         0.00000   0.00000   0.00000   0.00000  -0.00002
  48        2PY         0.00000   0.00000   0.00000   0.00000   0.00005
  49        2PZ         0.00006   0.00000   0.00000   0.00000   0.00000
  50        3S          0.00000   0.00000   0.00001  -0.00004  -0.00135
  51        3PX         0.00000   0.00000   0.00021  -0.00003   0.00003
  52        3PY         0.00000   0.00000   0.00001  -0.00016  -0.00309
  53        3PZ        -0.00331   0.00000   0.00000   0.00000   0.00000
  54        4S          0.00000   0.00001  -0.00031  -0.00150  -0.00667
  55        4PX         0.00000   0.00024   0.00267  -0.00089  -0.00034
  56        4PY         0.00000   0.00006   0.00038  -0.00272  -0.00625
  57        4PZ        -0.01756   0.00000   0.00000   0.00000   0.00000
                          41        42        43        44        45
  41 7   H  1S          0.18482
  42        2S          0.07921   0.08762
  43 8   H  1S          0.00000  -0.00028   0.18731
  44        2S         -0.00020  -0.00097   0.08874   0.11050
  45 9   S  1S          0.00000   0.00000   0.00000   0.00000   2.13877
  46        2S          0.00000   0.00009   0.00000   0.00000  -0.14307
  47        2PX         0.00000  -0.00002   0.00000   0.00000   0.00000
  48        2PY         0.00000   0.00005   0.00000   0.00000   0.00000
  49        2PZ         0.00000   0.00000   0.00000   0.00000   0.00000
  50        3S         -0.00004  -0.00135   0.00000   0.00001  -0.00183
  51        3PX        -0.00004   0.00003   0.00000   0.00021   0.00000
  52        3PY        -0.00016  -0.00309   0.00000   0.00001   0.00000
  53        3PZ         0.00000   0.00000   0.00000   0.00000   0.00000
  54        4S         -0.00150  -0.00667   0.00001  -0.00031   0.00463
  55        4PX        -0.00090  -0.00034   0.00024   0.00266   0.00000
  56        4PY        -0.00272  -0.00624   0.00006   0.00038   0.00000
  57        4PZ         0.00000   0.00000   0.00000   0.00000   0.00000
                          46        47        48        49        50
  46        2S          2.34149
  47        2PX         0.00000   1.99412
  48        2PY         0.00000   0.00000   1.97157
  49        2PZ         0.00000   0.00000   0.00000   2.01825
  50        3S         -0.08789   0.00000   0.00000   0.00000   0.69568
  51        3PX         0.00000  -0.01529   0.00000   0.00000   0.00000
  52        3PY         0.00000   0.00000   0.00002   0.00000   0.00000
  53        3PZ         0.00000   0.00000   0.00000  -0.03262   0.00000
  54        4S         -0.14967   0.00000   0.00000   0.00000   0.44455
  55        4PX         0.00000  -0.01214   0.00000   0.00000   0.00000
  56        4PY         0.00000   0.00000  -0.00943   0.00000   0.00000
  57        4PZ         0.00000   0.00000   0.00000  -0.02169   0.00000
                          51        52        53        54        55
  51        3PX         0.50739
  52        3PY         0.00000   0.40182
  53        3PZ         0.00000   0.00000   0.60993
  54        4S          0.00000   0.00000   0.00000   0.73291
  55        4PX         0.15945   0.00000   0.00000   0.00000   0.15943
  56        4PY         0.00000   0.08971   0.00000   0.00000   0.00000
  57        4PZ         0.00000   0.00000   0.32946   0.00000   0.00000
                          56        57
  56        4PY         0.06738
  57        4PZ         0.00000   0.47507
     Gross orbital populations:
                           1
   1 1   C  1S          1.98605
   2        2S          0.40290
   3        2PX         0.61480
   4        2PY         0.59975
   5        2PZ         0.46428
   6        3S          0.89135
   7        3PX         0.31302
   8        3PY         0.30709
   9        3PZ         0.56711
  10 2   C  1S          1.98613
  11        2S          0.39004
  12        2PX         0.56307
  13        2PY         0.56206
  14        2PZ         0.48489
  15        3S          1.05064
  16        3PX         0.33433
  17        3PY         0.54236
  18        3PZ         0.62575
  19 3   C  1S          1.98613
  20        2S          0.39004
  21        2PX         0.56323
  22        2PY         0.56195
  23        2PZ         0.48495
  24        3S          1.05061
  25        3PX         0.33424
  26        3PY         0.54239
  27        3PZ         0.62576
  28 4   C  1S          1.98606
  29        2S          0.40292
  30        2PX         0.61487
  31        2PY         0.59979
  32        2PZ         0.46429
  33        3S          0.89121
  34        3PX         0.31287
  35        3PY         0.30724
  36        3PZ         0.56708
  37 5   H  1S          0.47503
  38        2S          0.32554
  39 6   H  1S          0.47037
  40        2S          0.30139
  41 7   H  1S          0.47041
  42        2S          0.30137
  43 8   H  1S          0.47497
  44        2S          0.32559
  45 9   S  1S          1.99859
  46        2S          1.95905
  47        2PX         1.95740
  48        2PY         1.95312
  49        2PZ         1.96302
  50        3S          1.08664
  51        3PX         0.83260
  52        3PY         0.69228
  53        3PZ         0.93617
  54        4S          0.75213
  55        4PX         0.33259
  56        4PY         0.20383
  57        4PZ         0.81670
          Condensed to atoms (all electrons):
               1          2          3          4          5          6
     1  C    5.182544   0.411235  -0.103319   0.435589  -0.031224   0.002355
     2  C    0.411235   5.669592  -0.059000  -0.103387   0.004565   0.001957
     3  C   -0.103319  -0.059000   5.669607   0.411352  -0.036184   0.387721
     4  C    0.435589  -0.103387   0.411352   5.182537   0.387867  -0.026688
     5  H   -0.031224   0.004565  -0.036184   0.387867   0.475360  -0.001444
     6  H    0.002355   0.001957   0.387721  -0.026688  -0.001444   0.430828
     7  H   -0.026702   0.387705   0.001959   0.002358  -0.000038  -0.000015
     8  H    0.387876  -0.036130   0.004558  -0.031211  -0.001619  -0.000038
     9  S   -0.112019   0.262722   0.262610  -0.112099   0.003281  -0.022910
               7          8          9
     1  C   -0.026702   0.387876  -0.112019
     2  C    0.387705  -0.036130   0.262722
     3  C    0.001959   0.004558   0.262610
     4  C    0.002358  -0.031211  -0.112099
     5  H   -0.000038  -0.001619   0.003281
     6  H   -0.000015  -0.000038  -0.022910
     7  H    0.430858  -0.001440  -0.022907
     8  H   -0.001440   0.475288   0.003272
     9  S   -0.022907   0.003272  15.222171
 Mulliken charges:
               1
     1  C   -0.146336
     2  C   -0.539259
     3  C   -0.539305
     4  C   -0.146318
     5  H    0.199435
     6  H    0.228235
     7  H    0.228222
     8  H    0.199445
     9  S    0.515880
 Sum of Mulliken charges =   0.00000
 Mulliken charges with hydrogens summed into heavy atoms:
               1
     1  C    0.053109
     2  C   -0.311037
     3  C   -0.311070
     4  C    0.053118
     9  S    0.515880
 Electronic spatial extent (au):  <R**2>=            414.7977
 Charge=              0.0000 electrons
 Dipole moment (field-independent basis, Debye):
    X=             -0.9658    Y=             -0.0005    Z=             -0.0005  Tot=              0.9658
 Quadrupole moment (field-independent basis, Debye-Ang):
   XX=            -34.8892   YY=            -30.8483   ZZ=            -40.7935
   XY=             -0.0033   XZ=             -0.0003   YZ=              0.0010
 Traceless Quadrupole moment (field-independent basis, Debye-Ang):
   XX=              0.6211   YY=              4.6620   ZZ=             -5.2832
   XY=             -0.0033   XZ=             -0.0003   YZ=              0.0010
 Octapole moment (field-independent basis, Debye-Ang**2):
  XXX=             -8.3404  YYY=             -0.0014  ZZZ=             -0.0006  XYY=              1.7846
  XXY=             -0.0012  XXZ=             -0.0001  XZZ=              1.6699  YZZ=              0.0000
  YYZ=             -0.0029  XYZ=             -0.0006
 Hexadecapole moment (field-independent basis, Debye-Ang**3):
 XXXX=           -281.3529 YYYY=           -191.2841 ZZZZ=            -46.3016 XXXY=             -0.0189
 XXXZ=             -0.0013 YYYX=             -0.0069 YYYZ=              0.0067 ZZZX=             -0.0002
 ZZZY=              0.0013 XXYY=            -77.4797 XXZZ=            -62.4891 YYZZ=            -50.6521
 XXYZ=             -0.0001 YYXZ=             -0.0010 ZZXY=              0.0005
 N-N= 1.981469370350D+02 E-N=-1.694492637334D+03  KE= 5.475355607783D+02
 Orbital energies and kinetic energies (alpha):
                                 1                 2
   1         O               -88.265632        120.216131
   2         O               -10.160995         15.806451
   3         O               -10.160923         15.803057
   4         O               -10.136068         15.802873
   5         O               -10.134887         15.808392
   6         O                -7.907634         19.015195
   7         O                -5.877213         17.236422
   8         O                -5.873183         17.238595
   9         O                -5.867436         17.269615
  10         O                -0.877344          1.656008
  11         O                -0.733824          2.042986
  12         O                -0.730727          1.635827
  13         O                -0.573648          1.603678
  14         O                -0.552065          1.403871
  15         O                -0.520586          1.126221
  16         O                -0.426436          1.295680
  17         O                -0.403713          1.425512
  18         O                -0.383250          1.575225
  19         O                -0.374091          1.109592
  20         O                -0.340942          1.902672
  21         O                -0.253128          1.630826
  22         O                -0.241107          1.162951
  23         V                -0.013226          1.541267
  24         V                 0.034388          1.873768
  25         V                 0.077121          1.479375
  26         V                 0.093866          2.195973
  27         V                 0.120952          0.998446
  28         V                 0.170125          1.135257
  29         V                 0.194526          1.392674
  30         V                 0.208487          1.239318
  31         V                 0.300685          1.560023
  32         V                 0.359503          1.716167
  33         V                 0.454869          2.293385
  34         V                 0.478858          2.269891
  35         V                 0.506676          3.195740
  36         V                 0.526696          2.965488
  37         V                 0.530935          2.954242
  38         V                 0.672744          2.067029
  39         V                 0.721840          2.647881
  40         V                 0.725367          2.069181
  41         V                 0.726895          2.520968
  42         V                 0.763330          2.556628
  43         V                 0.798228          2.907059
  44         V                 0.812455          2.624526
  45         V                 0.833466          2.602513
  46         V                 0.952896          2.881334
  47         V                 0.990048          3.280633
  48         V                 1.007651          2.971381
  49         V                 1.054235          3.131987
  50         V                 1.060667          3.172759
  51         V                 1.242087          2.610493
  52         V                 1.339606          2.861329
  53         V                 1.376102          2.678938
  54         V                 1.406062          2.981689
  55         V                 1.583312          3.201041
  56         V                 1.823422          3.492673
  57         V                 1.924016          3.388451
 Total kinetic energy from orbitals= 5.475355607783D+02
 Leave Link  601 at Tue Apr  5 13:38:58 2016, MaxMem=    33554432 cpu:         0.0
 (Enter /home/dustin/Applications/g09/g09/l9999.exe)
 1\1\GINC-DUSTIN-DESKTOP\SP\RB3LYP-FC\3-21G\C4H4S1\DUSTIN\05-Apr-2016\0
 \\#P B3LYP/3-21G CIS(Singlets,NStates=10) pop(full) Geom=Checkpoint\\T
 hiophene\\0,1\C,0,0.8864012658,-0.697958511,-0.0099376801\C,0,-0.35839
 71935,-1.2411626914,0.0048165425\C,0,-0.3443509025,1.3000989927,0.0502
 394395\C,0,0.8940505299,0.7437953086,0.0153799961\H,0,1.8029638294,1.3
 291082935,0.0078913458\H,0,-0.618903076,2.3410131337,0.073839504\H,0,-
 0.6443916658,-2.2791160712,-0.00805436\H,0,1.7890366318,-1.2924490473,
 -0.0384867355\S,0,-1.6365403392,0.0361739424,0.0530933076\\Version=ES6
 4L-G09RevD.01\State=1-A\HF=-550.1841091\RMSD=6.413e-09\PG=C01 [X(C4H4S
 1)]\\@


 The hours that make us happy make us wise.
                         -- John Masefield
 Job cpu time:       0 days  0 hours  0 minutes 16.2 seconds.
 File lengths (MBytes):  RWF=     11 Int=      0 D2E=      0 Chk=      3 Scr=      1
 Normal termination of Gaussian 09 at Tue Apr  5 13:38:58 2016.
