 Entering Gaussian System, Link 0=g09
 Input=best.com
 Output=Thiophene_best_1_Excited.log
 Initial command:
 /opt/g09/g09/l1.exe "/opt/g09/scratch/Gau-29541.inp" -scrdir="/opt/g09/scratch/"
 Entering Link 1 = /opt/g09/g09/l1.exe PID=     29542.
  
 Copyright (c) 1988,1990,1992,1993,1995,1998,2003,2009,2013,
            Gaussian, Inc.  All Rights Reserved.
  
 This is part of the Gaussian(R) 09 program.  It is based on
 the Gaussian(R) 03 system (copyright 2003, Gaussian, Inc.),
 the Gaussian(R) 98 system (copyright 1998, Gaussian, Inc.),
 the Gaussian(R) 94 system (copyright 1995, Gaussian, Inc.),
 the Gaussian 92(TM) system (copyright 1992, Gaussian, Inc.),
 the Gaussian 90(TM) system (copyright 1990, Gaussian, Inc.),
 the Gaussian 88(TM) system (copyright 1988, Gaussian, Inc.),
 the Gaussian 86(TM) system (copyright 1986, Carnegie Mellon
 University), and the Gaussian 82(TM) system (copyright 1983,
 Carnegie Mellon University). Gaussian is a federally registered
 trademark of Gaussian, Inc.
  
 This software contains proprietary and confidential information,
 including trade secrets, belonging to Gaussian, Inc.
  
 This software is provided under written license and may be
 used, copied, transmitted, or stored only in accord with that
 written license.
  
 The following legend is applicable only to US Government
 contracts under FAR:
  
                    RESTRICTED RIGHTS LEGEND
  
 Use, reproduction and disclosure by the US Government is
 subject to restrictions as set forth in subparagraphs (a)
 and (c) of the Commercial Computer Software - Restricted
 Rights clause in FAR 52.227-19.
  
 Gaussian, Inc.
 340 Quinnipiac St., Bldg. 40, Wallingford CT 06492
  
  
 ---------------------------------------------------------------
 Warning -- This program may not be used in any manner that
 competes with the business of Gaussian, Inc. or will provide
 assistance to any competitor of Gaussian, Inc.  The licensee
 of this program is prohibited from giving any competitor of
 Gaussian, Inc. access to this program.  By using this program,
 the user acknowledges that Gaussian, Inc. is engaged in the
 business of creating and licensing software in the field of
 computational chemistry and represents and warrants to the
 licensee that it is not a competitor of Gaussian, Inc. and that
 it will not use this program in any manner prohibited above.
 ---------------------------------------------------------------
  

 Cite this work as:
 Gaussian 09, Revision D.01,
 M. J. Frisch, G. W. Trucks, H. B. Schlegel, G. E. Scuseria, 
 M. A. Robb, J. R. Cheeseman, G. Scalmani, V. Barone, B. Mennucci, 
 G. A. Petersson, H. Nakatsuji, M. Caricato, X. Li, H. P. Hratchian, 
 A. F. Izmaylov, J. Bloino, G. Zheng, J. L. Sonnenberg, M. Hada, 
 M. Ehara, K. Toyota, R. Fukuda, J. Hasegawa, M. Ishida, T. Nakajima, 
 Y. Honda, O. Kitao, H. Nakai, T. Vreven, J. A. Montgomery, Jr., 
 J. E. Peralta, F. Ogliaro, M. Bearpark, J. J. Heyd, E. Brothers, 
 K. N. Kudin, V. N. Staroverov, T. Keith, R. Kobayashi, J. Normand, 
 K. Raghavachari, A. Rendell, J. C. Burant, S. S. Iyengar, J. Tomasi, 
 M. Cossi, N. Rega, J. M. Millam, M. Klene, J. E. Knox, J. B. Cross, 
 V. Bakken, C. Adamo, J. Jaramillo, R. Gomperts, R. E. Stratmann, 
 O. Yazyev, A. J. Austin, R. Cammi, C. Pomelli, J. W. Ochterski, 
 R. L. Martin, K. Morokuma, V. G. Zakrzewski, G. A. Voth, 
 P. Salvador, J. J. Dannenberg, S. Dapprich, A. D. Daniels, 
 O. Farkas, J. B. Foresman, J. V. Ortiz, J. Cioslowski, 
 and D. J. Fox, Gaussian, Inc., Wallingford CT, 2013.
 
 ******************************************
 Gaussian 09:  ES64L-G09RevD.01 24-Apr-2013
                24-Mar-2016 
 ******************************************
 %chk=freq
 -----------------------
 #P AM1(Input,Print) opt
 -----------------------
 1/14=-1,18=20,19=15,26=1,38=1/1,3;
 2/9=110,12=2,17=6,18=5,40=1/2;
 3/5=2,16=1,25=1,41=700000,71=1,135=100,136=1/1,2,3;
 4/35=1/1;
 5/5=2,35=1,38=5/2;
 6/7=2,8=2,9=2,10=2,28=1/1;
 7//1,2,3,16;
 1/14=-1,18=20,19=15,26=1/3(2);
 2/9=110/2;
 99//99;
 2/9=110/2;
 3/5=2,16=1,25=1,41=700000,71=1,135=20,136=1/1,2,3;
 4/5=5,16=3,35=1/1;
 5/5=2,35=1,38=5/2;
 7//1,2,3,16;
 1/14=-1,18=20,19=15,26=1/3(-5);
 2/9=110/2;
 6/7=2,8=2,9=2,10=2,19=2,28=1/1;
 99/9=1/99;
 Leave Link    1 at Thu Mar 24 15:41:39 2016, MaxMem=           0 cpu:         0.0
 (Enter /opt/g09/g09/l101.exe)
 ----
 best
 ----
 Symbolic Z-matrix:
 Charge =  0 Multiplicity = 1
 6                     0.8684   -0.68866   0.01581 
 6                    -0.36354  -1.29398  -0.0265 
 6                    -0.35129   1.28484   0.09378 
 6                     0.86821   0.74417  -0.06483 
 1                     1.77651   1.35109  -0.0205 
 1                    -0.57033   2.32634   0.15403 
 1                    -0.63025  -2.2947    0.13042 
 1                     1.78071  -1.22059  -0.11839 
 16                   -1.59949   0.04348  -0.13725 
 
 NAtoms=      9 NQM=        9 NQMF=       0 NMMI=      0 NMMIF=      0
                NMic=       0 NMicF=      0.
                    Isotopes and Nuclear Properties:
 (Nuclear quadrupole moments (NQMom) in fm**2, nuclear magnetic moments (NMagM)
  in nuclear magnetons)

  Atom         1           2           3           4           5           6           7           8           9
 IAtWgt=          12          12          12          12           1           1           1           1          32
 AtmWgt=  12.0000000  12.0000000  12.0000000  12.0000000   1.0078250   1.0078250   1.0078250   1.0078250  31.9720718
 NucSpn=           0           0           0           0           1           1           1           1           0
 AtZEff=   0.0000000   0.0000000   0.0000000   0.0000000   0.0000000   0.0000000   0.0000000   0.0000000   0.0000000
 NQMom=    0.0000000   0.0000000   0.0000000   0.0000000   0.0000000   0.0000000   0.0000000   0.0000000   0.0000000
 NMagM=    0.0000000   0.0000000   0.0000000   0.0000000   2.7928460   2.7928460   2.7928460   2.7928460   0.0000000
 AtZNuc=   6.0000000   6.0000000   6.0000000   6.0000000   1.0000000   1.0000000   1.0000000   1.0000000  16.0000000
 Leave Link  101 at Thu Mar 24 15:41:39 2016, MaxMem=    33554432 cpu:         0.0
 (Enter /opt/g09/g09/l103.exe)

 GradGradGradGradGradGradGradGradGradGradGradGradGradGradGradGradGradGrad
 Berny optimization.
 Initialization pass.
                           ----------------------------
                           !    Initial Parameters    !
                           ! (Angstroms and Degrees)  !
 --------------------------                            --------------------------
 ! Name  Definition              Value          Derivative Info.                !
 --------------------------------------------------------------------------------
 ! R1    R(1,2)                  1.3733         estimate D2E/DX2                !
 ! R2    R(1,4)                  1.4351         estimate D2E/DX2                !
 ! R3    R(1,8)                  1.0646         estimate D2E/DX2                !
 ! R4    R(2,7)                  1.0475         estimate D2E/DX2                !
 ! R5    R(2,9)                  1.8244         estimate D2E/DX2                !
 ! R6    R(3,4)                  1.3434         estimate D2E/DX2                !
 ! R7    R(3,6)                  1.066          estimate D2E/DX2                !
 ! R8    R(3,9)                  1.7755         estimate D2E/DX2                !
 ! R9    R(4,5)                  1.0933         estimate D2E/DX2                !
 ! A1    A(2,1,4)              115.9915         estimate D2E/DX2                !
 ! A2    A(2,1,8)              123.0015         estimate D2E/DX2                !
 ! A3    A(4,1,8)              119.4666         estimate D2E/DX2                !
 ! A4    A(1,2,7)              130.1589         estimate D2E/DX2                !
 ! A5    A(1,2,9)              106.6459         estimate D2E/DX2                !
 ! A6    A(7,2,9)              122.4771         estimate D2E/DX2                !
 ! A7    A(4,3,6)              125.9042         estimate D2E/DX2                !
 ! A8    A(4,3,9)              109.9639         estimate D2E/DX2                !
 ! A9    A(6,3,9)              123.0934         estimate D2E/DX2                !
 ! A10   A(1,4,3)              113.2862         estimate D2E/DX2                !
 ! A11   A(1,4,5)              123.4945         estimate D2E/DX2                !
 ! A12   A(3,4,5)              121.7329         estimate D2E/DX2                !
 ! A13   A(2,9,3)               91.6273         estimate D2E/DX2                !
 ! D1    D(4,1,2,7)           -171.6147         estimate D2E/DX2                !
 ! D2    D(4,1,2,9)             -1.3437         estimate D2E/DX2                !
 ! D3    D(8,1,2,7)             22.6454         estimate D2E/DX2                !
 ! D4    D(8,1,2,9)           -167.0836         estimate D2E/DX2                !
 ! D5    D(2,1,4,3)             12.34           estimate D2E/DX2                !
 ! D6    D(2,1,4,5)            178.6114         estimate D2E/DX2                !
 ! D7    D(8,1,4,3)            178.6143         estimate D2E/DX2                !
 ! D8    D(8,1,4,5)            -15.1144         estimate D2E/DX2                !
 ! D9    D(1,2,9,3)             -6.7892         estimate D2E/DX2                !
 ! D10   D(7,2,9,3)            164.4046         estimate D2E/DX2                !
 ! D11   D(6,3,4,1)            174.4311         estimate D2E/DX2                !
 ! D12   D(6,3,4,5)              7.8872         estimate D2E/DX2                !
 ! D13   D(9,3,4,1)            -16.997          estimate D2E/DX2                !
 ! D14   D(9,3,4,5)            176.4591         estimate D2E/DX2                !
 ! D15   D(4,3,9,2)             13.7672         estimate D2E/DX2                !
 ! D16   D(6,3,9,2)           -177.2771         estimate D2E/DX2                !
 --------------------------------------------------------------------------------
 Trust Radius=3.00D-01 FncErr=1.00D-07 GrdErr=1.00D-07
 Number of steps in this run=     48 maximum allowed number of steps=    100.
 GradGradGradGradGradGradGradGradGradGradGradGradGradGradGradGradGradGrad

 Leave Link  103 at Thu Mar 24 15:41:39 2016, MaxMem=    33554432 cpu:         0.0
 (Enter /opt/g09/g09/l202.exe)
                          Input orientation:                          
 ---------------------------------------------------------------------
 Center     Atomic      Atomic             Coordinates (Angstroms)
 Number     Number       Type             X           Y           Z
 ---------------------------------------------------------------------
      1          6           0        0.868397   -0.688663    0.015808
      2          6           0       -0.363541   -1.293981   -0.026504
      3          6           0       -0.351293    1.284838    0.093782
      4          6           0        0.868205    0.744166   -0.064827
      5          1           0        1.776509    1.351092   -0.020496
      6          1           0       -0.570333    2.326340    0.154027
      7          1           0       -0.630247   -2.294702    0.130421
      8          1           0        1.780711   -1.220592   -0.118390
      9         16           0       -1.599485    0.043477   -0.137249
 ---------------------------------------------------------------------
                    Distance matrix (angstroms):
                    1          2          3          4          5
     1  C    0.000000
     2  C    1.373270   0.000000
     3  C    2.321299   2.581652   0.000000
     4  C    1.435096   2.381745   1.343376   0.000000
     5  H    2.233066   3.402391   2.131898   1.093316   0.000000
     6  H    3.343545   3.630713   1.065990   2.149550   2.547398
     7  H    2.199643   1.047473   3.590580   3.393847   4.371163
     8  H    1.064554   2.147474   3.296610   2.166982   2.573550
     9  S    2.578739   1.824449   1.775482   2.566263   3.622268
                    6          7          8          9
     6  H    0.000000
     7  H    4.621491   0.000000
     8  H    4.264076   2.651101   0.000000
     9  S    2.521004   2.545221   3.608871   0.000000
 Stoichiometry    C4H4S
 Framework group  C1[X(C4H4S)]
 Deg. of freedom    21
 Full point group                 C1      NOp   1
 Largest Abelian subgroup         C1      NOp   1
 Largest concise Abelian subgroup C1      NOp   1
                         Standard orientation:                         
 ---------------------------------------------------------------------
 Center     Atomic      Atomic             Coordinates (Angstroms)
 Number     Number       Type             X           Y           Z
 ---------------------------------------------------------------------
      1          6           0       -1.252177    0.725177    0.025154
      2          6           0       -0.014250    1.319477    0.039861
      3          6           0       -0.053686   -1.260803    0.114217
      4          6           0       -1.261526   -0.705986   -0.080610
      5          1           0       -2.176153   -1.304984   -0.081157
      6          1           0        0.153765   -2.305211    0.164327
      7          1           0        0.255119    2.314779    0.224286
      8          1           0       -2.154064    1.267931   -0.133884
      9         16           0        1.213198   -0.027481   -0.047831
 ---------------------------------------------------------------------
 Rotational constants (GHZ):      7.5649812      5.3304459      3.1439208
 Leave Link  202 at Thu Mar 24 15:41:39 2016, MaxMem=    33554432 cpu:         0.0
 (Enter /opt/g09/g09/l301.exe)

 Semi-emprical parameters in input format:
 Method=8 CoreType=1 PeptideFC=0.0130054926 RIJScale=0.4887302135
 ****
 H       
 PQN=1 NValence=1 F0ss=0.4718180406 ZetaOverlap=1.2063753890 U=-0.4026844113
 Beta=-0.2375061252 CoreKO=1.1156935984 KON=0,0,0,1.0502004605 KON=1,0,1,0.9635810405
 KON=0,1,1,0.9330514775 KON=2,1,1,1.0163059844 EISol=-0.4188110042 EHeat=0.0830298228
 Alpha=1.5325669538
 GCore=0.0077972409,1.3730785483,2.0856466358
 GCore=0.0002914631,1.1111893878,3.4323667483
 GCore=-0.0013710866,0.6263466706,3.8061403854
 ****
 C       
 PQN=2,2 NValence=4 F0ss=0.4414293821 F0sp=0.4326790039 F0pp=0.3572497418 F2pp=0.2647976831
 G1sp=0.2634149259
 ZetaOverlap=1.7362973768,1.4000694049
 U=-1.8762342383,-1.4260254375
 Beta=-0.5795077006,-0.3444706868 DDN=0,1,0.7210584891 DDN=1,1,0.8450245162
 CoreKO=1.1744187079 KON=0,0,0,1.0278175134 KON=1,0,1,0.8693172390 KON=0,1,1,0.8629983758
 KON=2,1,1,0.6994472246 EISol=-4.4398989268 EHeat=0.2723305520 Alpha=1.4189169450
 DipHyp=1.4420340120
 GCore=0.0008728220,1.1251244275,2.8122930267
 GCore=0.0032623705,1.0881672798,3.9097056648
 GCore=-0.0012619178,1.3179203212,3.6583902124
 GCore=-0.0001042443,1.0588327379,4.7350277079
 ****
 S       
 PQN=3,3 NValence=6 F0ss=0.4504516255 F0sp=0.3278525659 F0pp=0.3178991935 F2pp=0.2783203788
 G1sp=0.2994566759
 ZetaOverlap=2.2203118665,1.5881872395,1.0271293280
 U=-2.2003585331,-1.8080890038
 Beta=-0.1918869010,-0.2888968783 DDN=0,1,0.9096756330 DDN=1,1,1.0465594377
 CoreKO=1.2688604297 KON=0,0,0,1.0039216616 KON=1,0,1,0.8467026664 KON=0,1,1,0.8718632047
 KON=2,1,1,0.7421927012 EISol=-7.0460287497 EHeat=0.1058151363 Alpha=1.2475155193
 DipHyp=1.8192465971
 GCore=-0.0427564146,1.1863026460,1.1122669290
 GCore=-0.0009262104,1.7337505786,3.0374147736
 GCore=0.0007715030,3.5545222057,4.4470906627
 ****
 
 Standard basis: VSTO-6G (5D, 7F)
 Ernie: Thresh=  0.10000D-02 Tol=  0.10000D-05 Strict=F.
  NNHCO=     0 NNPyr=     0 NCTC=     0               EPep=         0.000000000
    EC=        61.903268587  ECS=         1.559536391   EG=         0.167946708
   EHC=         0.000000000  EAt=       -26.480868474  AtH=         1.527256636
 EPDDG=         0.000000000  ECC=        63.630751686 EAtT=        28.008125109
 There are    24 symmetry adapted cartesian basis functions of A   symmetry.
 There are    24 symmetry adapted basis functions of A   symmetry.
    24 basis functions,   144 primitive gaussians,    24 cartesian basis functions
    13 alpha electrons       13 beta electrons
       nuclear repulsion energy        91.6388767950 Hartrees.
 IExCor=    0 DFT=F Ex=HF Corr=None ExCW=0 ScaHFX=  1.000000
 ScaDFX=  1.000000  1.000000  1.000000  1.000000 ScalE2=  1.000000  1.000000
 IRadAn=      0 IRanWt=     -1 IRanGd=            0 ICorTp=0 IEmpDi=  4
 Integral buffers will be    131072 words long.
 Regular integral format.
 Two-electron integral symmetry is turned off.
 Leave Link  301 at Thu Mar 24 15:41:39 2016, MaxMem=    33554432 cpu:         0.0
 (Enter /opt/g09/g09/l302.exe)
 Do NDO integrals.
 NPDir=0 NMtPBC=     1 NCelOv=     1 NCel=       1 NClECP=     1 NCelD=      1
         NCelK=      1 NCelE2=     1 NClLst=     1 CellRange=     0.0.
 One-electron integrals computed using PRISM.
 NBasis=    24 RedAO= F EigKep=  0.00D+00  NBF=    24
 NBsUse=    24 1.00D-04 EigRej=  0.00D+00 NBFU=    24
 Leave Link  302 at Thu Mar 24 15:41:39 2016, MaxMem=    33554432 cpu:         0.0
 (Enter /opt/g09/g09/l303.exe)
 DipDrv:  MaxL=1.
 Leave Link  303 at Thu Mar 24 15:41:40 2016, MaxMem=    33554432 cpu:         0.0
 (Enter /opt/g09/g09/l401.exe)
 Simple Huckel Guess.
 JPrj=0 DoOrth=F DoCkMO=F.
 Leave Link  401 at Thu Mar 24 15:41:40 2016, MaxMem=    33554432 cpu:         0.0
 (Enter /opt/g09/g09/l502.exe)
 Closed shell SCF:
 Using DIIS extrapolation, IDIIS=  1040.
 Overlap will be assumed to be unity.
 Two-electron integral symmetry not used.
 Keep J ints in memory in canonical form, NReq=888082.
 IVT=       79475 IEndB=       79475 NGot=    33554432 MDV=    33473473
 LenX=    33473473 LenY=    33472456
 Requested convergence on RMS density matrix=1.00D-08 within 128 cycles.
 Requested convergence on MAX density matrix=1.00D-06.
 Requested convergence on             energy=1.00D-06.
 No special actions if energy rises.
 FoFCou: FMM=F IPFlag=           0 FMFlag=           0 FMFlg1=           0
         NFxFlg=           0 DoJE=F BraDBF=F KetDBF=F FulRan=T
         wScrn=  0.000000 ICntrl=     600 IOpCl=  2 I1Cent=           0 NGrid=           0
         NMat0=    1 NMatS0=     54 NMatT0=    0 NMatD0=    1 NMtDS0=    0 NMtDT0=    0
 Symmetry not used in FoFCou.

 Cycle   1  Pass 1  IDiag  1:
 E=-0.761019251600743    
 DIIS: error= 3.68D-02 at cycle   1 NSaved=   1.
 NSaved= 1 IEnMin= 1 EnMin=-0.761019251600743     IErMin= 1 ErrMin= 3.68D-02
 ErrMax= 3.68D-02  0.00D+00 EMaxC= 1.00D-01 BMatC= 5.38D-02 BMatP= 5.38D-02
 IDIUse=3 WtCom= 6.32D-01 WtEn= 3.68D-01
 Coeff-Com:  0.100D+01
 Coeff-En:   0.100D+01
 Coeff:      0.100D+01
 GapD=    2.000 DampG=2.000 DampE=0.500 DampFc=1.0000 IDamp=-1.
 RMSDP=1.52D-02 MaxDP=1.11D-01              OVMax= 0.00D+00

 Cycle   2  Pass 1  IDiag  1:
 E=-0.906262629443290     Delta-E=       -0.145243377843 Rises=F Damp=F
 DIIS: error= 1.10D-02 at cycle   2 NSaved=   2.
 NSaved= 2 IEnMin= 2 EnMin=-0.906262629443290     IErMin= 2 ErrMin= 1.10D-02
 ErrMax= 1.10D-02  0.00D+00 EMaxC= 1.00D-01 BMatC= 4.00D-03 BMatP= 5.38D-02
 IDIUse=3 WtCom= 8.90D-01 WtEn= 1.10D-01
 Coeff-Com: -0.346D+00 0.135D+01
 Coeff-En:   0.000D+00 0.100D+01
 Coeff:     -0.308D+00 0.131D+01
 RMSDP=5.72D-03 MaxDP=5.22D-02 DE=-1.45D-01 OVMax= 0.00D+00

 Cycle   3  Pass 1  IDiag  3:
 E=-0.919085796392636     Delta-E=       -0.012823166949 Rises=F Damp=F
 DIIS: error= 1.41D-03 at cycle   3 NSaved=   3.
 NSaved= 3 IEnMin= 3 EnMin=-0.919085796392636     IErMin= 3 ErrMin= 1.41D-03
 ErrMax= 1.41D-03  0.00D+00 EMaxC= 1.00D-01 BMatC= 7.28D-05 BMatP= 4.00D-03
 IDIUse=3 WtCom= 9.86D-01 WtEn= 1.41D-02
 Coeff-Com:  0.106D+00-0.474D+00 0.137D+01
 Coeff-En:   0.000D+00 0.000D+00 0.100D+01
 Coeff:      0.105D+00-0.468D+00 0.136D+01
 Gap=     0.407 Goal=   None    Shift=    0.000
 RMSDP=1.17D-03 MaxDP=1.20D-02 DE=-1.28D-02 OVMax= 1.08D-02

 Cycle   4  Pass 1  IDiag  3:
 E=-0.919497732840128     Delta-E=       -0.000411936447 Rises=F Damp=F
 DIIS: error= 4.34D-04 at cycle   4 NSaved=   4.
 NSaved= 4 IEnMin= 4 EnMin=-0.919497732840128     IErMin= 4 ErrMin= 4.34D-04
 ErrMax= 4.34D-04  0.00D+00 EMaxC= 1.00D-01 BMatC= 6.81D-06 BMatP= 7.28D-05
 IDIUse=3 WtCom= 9.96D-01 WtEn= 4.34D-03
 Coeff-Com: -0.995D-02 0.548D-01-0.427D+00 0.138D+01
 Coeff-En:   0.000D+00 0.000D+00 0.000D+00 0.100D+01
 Coeff:     -0.991D-02 0.546D-01-0.425D+00 0.138D+01
 Gap=     0.406 Goal=   None    Shift=    0.000
 RMSDP=4.37D-04 MaxDP=4.11D-03 DE=-4.12D-04 OVMax= 4.08D-03

 Cycle   5  Pass 1  IDiag  3:
 E=-0.919545424376054     Delta-E=       -0.000047691536 Rises=F Damp=F
 DIIS: error= 1.61D-04 at cycle   5 NSaved=   5.
 NSaved= 5 IEnMin= 5 EnMin=-0.919545424376054     IErMin= 5 ErrMin= 1.61D-04
 ErrMax= 1.61D-04  0.00D+00 EMaxC= 1.00D-01 BMatC= 1.09D-06 BMatP= 6.81D-06
 IDIUse=3 WtCom= 9.98D-01 WtEn= 1.61D-03
 Coeff-Com: -0.167D-02 0.232D-02 0.178D+00-0.100D+01 0.183D+01
 Coeff-En:   0.000D+00 0.000D+00 0.000D+00 0.000D+00 0.100D+01
 Coeff:     -0.166D-02 0.232D-02 0.178D+00-0.100D+01 0.182D+01
 Gap=     0.406 Goal=   None    Shift=    0.000
 RMSDP=2.10D-04 MaxDP=1.70D-03 DE=-4.77D-05 OVMax= 1.69D-03

 Cycle   6  Pass 1  IDiag  3:
 E=-0.919554083118086     Delta-E=       -0.000008658742 Rises=F Damp=F
 DIIS: error= 5.55D-05 at cycle   6 NSaved=   6.
 NSaved= 6 IEnMin= 6 EnMin=-0.919554083118086     IErMin= 6 ErrMin= 5.55D-05
 ErrMax= 5.55D-05  0.00D+00 EMaxC= 1.00D-01 BMatC= 1.33D-07 BMatP= 1.09D-06
 IDIUse=1 WtCom= 1.00D+00 WtEn= 0.00D+00
 Coeff-Com:  0.495D-03 0.934D-03-0.124D+00 0.703D+00-0.152D+01 0.194D+01
 Coeff:      0.495D-03 0.934D-03-0.124D+00 0.703D+00-0.152D+01 0.194D+01
 Gap=     0.405 Goal=   None    Shift=    0.000
 RMSDP=7.80D-05 MaxDP=5.73D-04 DE=-8.66D-06 OVMax= 4.88D-04

 Cycle   7  Pass 1  IDiag  3:
 E=-0.919555176333532     Delta-E=       -0.000001093215 Rises=F Damp=F
 DIIS: error= 1.57D-05 at cycle   7 NSaved=   7.
 NSaved= 7 IEnMin= 7 EnMin=-0.919555176333532     IErMin= 7 ErrMin= 1.57D-05
 ErrMax= 1.57D-05  0.00D+00 EMaxC= 1.00D-01 BMatC= 1.14D-08 BMatP= 1.33D-07
 IDIUse=1 WtCom= 1.00D+00 WtEn= 0.00D+00
 Coeff-Com: -0.325D-03-0.403D-03 0.755D-01-0.438D+00 0.978D+00-0.146D+01
 Coeff-Com:  0.185D+01
 Coeff:     -0.325D-03-0.403D-03 0.755D-01-0.438D+00 0.978D+00-0.146D+01
 Coeff:      0.185D+01
 Gap=     0.405 Goal=   None    Shift=    0.000
 RMSDP=2.49D-05 MaxDP=1.92D-04 DE=-1.09D-06 OVMax= 2.01D-04

 Cycle   8  Pass 1  IDiag  3:
 E=-0.919555276092822     Delta-E=       -0.000000099759 Rises=F Damp=F
 DIIS: error= 4.61D-06 at cycle   8 NSaved=   8.
 NSaved= 8 IEnMin= 8 EnMin=-0.919555276092822     IErMin= 8 ErrMin= 4.61D-06
 ErrMax= 4.61D-06  0.00D+00 EMaxC= 1.00D-01 BMatC= 8.01D-10 BMatP= 1.14D-08
 IDIUse=1 WtCom= 1.00D+00 WtEn= 0.00D+00
 Coeff-Com:  0.858D-04 0.117D-03-0.202D-01 0.117D+00-0.264D+00 0.416D+00
 Coeff-Com: -0.704D+00 0.145D+01
 Coeff:      0.858D-04 0.117D-03-0.202D-01 0.117D+00-0.264D+00 0.416D+00
 Coeff:     -0.704D+00 0.145D+01
 Gap=     0.405 Goal=   None    Shift=    0.000
 RMSDP=5.29D-06 MaxDP=4.39D-05 DE=-9.98D-08 OVMax= 4.43D-05

 Cycle   9  Pass 1  IDiag  3:
 E=-0.919555282192519     Delta-E=       -0.000000006100 Rises=F Damp=F
 DIIS: error= 2.53D-06 at cycle   9 NSaved=   9.
 NSaved= 9 IEnMin= 9 EnMin=-0.919555282192519     IErMin= 9 ErrMin= 2.53D-06
 ErrMax= 2.53D-06  0.00D+00 EMaxC= 1.00D-01 BMatC= 2.06D-10 BMatP= 8.01D-10
 IDIUse=1 WtCom= 1.00D+00 WtEn= 0.00D+00
 Coeff-Com: -0.366D-04-0.129D-03 0.114D-01-0.648D-01 0.145D+00-0.230D+00
 Coeff-Com:  0.444D+00-0.136D+01 0.206D+01
 Coeff:     -0.366D-04-0.129D-03 0.114D-01-0.648D-01 0.145D+00-0.230D+00
 Coeff:      0.444D+00-0.136D+01 0.206D+01
 Gap=     0.405 Goal=   None    Shift=    0.000
 RMSDP=3.02D-06 MaxDP=2.28D-05 DE=-6.10D-09 OVMax= 2.50D-05

 Cycle  10  Pass 1  IDiag  3:
 E=-0.919555284110786     Delta-E=       -0.000000001918 Rises=F Damp=F
 DIIS: error= 1.10D-06 at cycle  10 NSaved=  10.
 NSaved=10 IEnMin=10 EnMin=-0.919555284110786     IErMin=10 ErrMin= 1.10D-06
 ErrMax= 1.10D-06  0.00D+00 EMaxC= 1.00D-01 BMatC= 4.22D-11 BMatP= 2.06D-10
 IDIUse=1 WtCom= 1.00D+00 WtEn= 0.00D+00
 Coeff-Com:  0.195D-04 0.155D-04-0.350D-02 0.201D-01-0.453D-01 0.746D-01
 Coeff-Com: -0.188D+00 0.838D+00-0.193D+01 0.224D+01
 Coeff:      0.195D-04 0.155D-04-0.350D-02 0.201D-01-0.453D-01 0.746D-01
 Coeff:     -0.188D+00 0.838D+00-0.193D+01 0.224D+01
 Gap=     0.405 Goal=   None    Shift=    0.000
 RMSDP=2.07D-06 MaxDP=1.67D-05 DE=-1.92D-09 OVMax= 1.66D-05

 Cycle  11  Pass 1  IDiag  3:
 E=-0.919555284577584     Delta-E=       -0.000000000467 Rises=F Damp=F
 DIIS: error= 1.48D-07 at cycle  11 NSaved=  11.
 NSaved=11 IEnMin=11 EnMin=-0.919555284577584     IErMin=11 ErrMin= 1.48D-07
 ErrMax= 1.48D-07  0.00D+00 EMaxC= 1.00D-01 BMatC= 1.00D-12 BMatP= 4.22D-11
 IDIUse=1 WtCom= 1.00D+00 WtEn= 0.00D+00
 Coeff-Com: -0.319D-05-0.492D-05 0.561D-03-0.317D-02 0.697D-02-0.118D-01
 Coeff-Com:  0.395D-01-0.221D+00 0.591D+00-0.843D+00 0.144D+01
 Coeff:     -0.319D-05-0.492D-05 0.561D-03-0.317D-02 0.697D-02-0.118D-01
 Coeff:      0.395D-01-0.221D+00 0.591D+00-0.843D+00 0.144D+01
 Gap=     0.405 Goal=   None    Shift=    0.000
 RMSDP=2.29D-07 MaxDP=1.69D-06 DE=-4.67D-10 OVMax= 1.41D-06

 Cycle  12  Pass 1  IDiag  3:
 E=-0.919555284584803     Delta-E=       -0.000000000007 Rises=F Damp=F
 DIIS: error= 2.09D-08 at cycle  12 NSaved=  12.
 NSaved=12 IEnMin=12 EnMin=-0.919555284584803     IErMin=12 ErrMin= 2.09D-08
 ErrMax= 2.09D-08  0.00D+00 EMaxC= 1.00D-01 BMatC= 2.54D-14 BMatP= 1.00D-12
 IDIUse=1 WtCom= 1.00D+00 WtEn= 0.00D+00
 Coeff-Com:  0.488D-06 0.363D-05-0.161D-03 0.877D-03-0.187D-02 0.318D-02
 Coeff-Com: -0.123D-01 0.754D-01-0.208D+00 0.309D+00-0.618D+00 0.145D+01
 Coeff:      0.488D-06 0.363D-05-0.161D-03 0.877D-03-0.187D-02 0.318D-02
 Coeff:     -0.123D-01 0.754D-01-0.208D+00 0.309D+00-0.618D+00 0.145D+01
 Gap=     0.405 Goal=   None    Shift=    0.000
 RMSDP=2.53D-08 MaxDP=1.53D-07 DE=-7.22D-12 OVMax= 1.85D-07

 Cycle  13  Pass 1  IDiag  3:
 E=-0.919555284584931     Delta-E=        0.000000000000 Rises=F Damp=F
 DIIS: error= 4.46D-09 at cycle  13 NSaved=  13.
 NSaved=13 IEnMin=13 EnMin=-0.919555284584931     IErMin=13 ErrMin= 4.46D-09
 ErrMax= 4.46D-09  0.00D+00 EMaxC= 1.00D-01 BMatC= 1.01D-15 BMatP= 2.54D-14
 IDIUse=1 WtCom= 1.00D+00 WtEn= 0.00D+00
 Coeff-Com: -0.878D-07-0.186D-05 0.611D-04-0.326D-03 0.683D-03-0.114D-02
 Coeff-Com:  0.458D-02-0.287D-01 0.797D-01-0.118D+00 0.241D+00-0.677D+00
 Coeff-Com:  0.150D+01
 Coeff:     -0.878D-07-0.186D-05 0.611D-04-0.326D-03 0.683D-03-0.114D-02
 Coeff:      0.458D-02-0.287D-01 0.797D-01-0.118D+00 0.241D+00-0.677D+00
 Coeff:      0.150D+01
 Gap=     0.405 Goal=   None    Shift=    0.000
 RMSDP=6.00D-09 MaxDP=4.25D-08 DE=-1.28D-13 OVMax= 5.65D-08

 Cycle  14  Pass 2  IDiag  1:
 SCF Done:  E(RAM1) = -0.919555284585     A.U. after   14 cycles
            NFock= 13  Conv=0.60D-08     -V/T= 0.9380
 KE=-1.483461239972D+01 PE=-1.558523938140D+02 EE= 7.812857413413D+01
 Leave Link  502 at Thu Mar 24 15:41:40 2016, MaxMem=    33554432 cpu:         0.0
 (Enter /opt/g09/g09/l601.exe)
 Copying SCF densities to generalized density rwf, IOpCl= 0 IROHF=0.

 **********************************************************************

            Population analysis using the SCF density.

 **********************************************************************

 Orbital symmetries:
       Occupied  (A) (A) (A) (A) (A) (A) (A) (A) (A) (A) (A) (A)
                 (A)
       Virtual   (A) (A) (A) (A) (A) (A) (A) (A) (A) (A) (A)
 The electronic state is 1-A.
 Alpha  occ. eigenvalues --   -1.25334  -0.97240  -0.83063  -0.65678  -0.64228
 Alpha  occ. eigenvalues --   -0.53898  -0.50452  -0.37009  -0.35522  -0.33509
 Alpha  occ. eigenvalues --   -0.27653  -0.25219  -0.22690
 Alpha virt. eigenvalues --    0.17856   0.24053   0.25596   0.27321   0.34503
 Alpha virt. eigenvalues --    0.35115   0.36963   0.37701   0.44327   0.44704
 Alpha virt. eigenvalues --    0.47551
          Condensed to atoms (all electrons):
               1          2          3          4          5          6
     1  C    4.133674   0.000000   0.000000   0.000000   0.000000   0.000000
     2  C    0.000000   4.324051   0.000000   0.000000   0.000000   0.000000
     3  C    0.000000   0.000000   4.265400   0.000000   0.000000   0.000000
     4  C    0.000000   0.000000   0.000000   4.180833   0.000000   0.000000
     5  H    0.000000   0.000000   0.000000   0.000000   0.835472   0.000000
     6  H    0.000000   0.000000   0.000000   0.000000   0.000000   0.808679
     7  H    0.000000   0.000000   0.000000   0.000000   0.000000   0.000000
     8  H    0.000000   0.000000   0.000000   0.000000   0.000000   0.000000
     9  S    0.000000   0.000000   0.000000   0.000000   0.000000   0.000000
               7          8          9
     1  C    0.000000   0.000000   0.000000
     2  C    0.000000   0.000000   0.000000
     3  C    0.000000   0.000000   0.000000
     4  C    0.000000   0.000000   0.000000
     5  H    0.000000   0.000000   0.000000
     6  H    0.000000   0.000000   0.000000
     7  H    0.787935   0.000000   0.000000
     8  H    0.000000   0.835549   0.000000
     9  S    0.000000   0.000000   5.828408
 Mulliken charges:
               1
     1  C   -0.133674
     2  C   -0.324051
     3  C   -0.265400
     4  C   -0.180833
     5  H    0.164528
     6  H    0.191321
     7  H    0.212065
     8  H    0.164451
     9  S    0.171592
 Sum of Mulliken charges =   0.00000
 Mulliken charges with hydrogens summed into heavy atoms:
               1
     1  C    0.030776
     2  C   -0.111985
     3  C   -0.074078
     4  C   -0.016305
     9  S    0.171592
 Charge=              0.0000 electrons
 Dipole moment (field-independent basis, Debye):
    X=             -1.2686    Y=             -0.1519    Z=              0.1121  Tot=              1.2825
 N-N= 9.163887679499D+01 E-N=-1.558523937966D+02  KE=-1.483461239972D+01
 Leave Link  601 at Thu Mar 24 15:41:40 2016, MaxMem=    33554432 cpu:         0.0
 (Enter /opt/g09/g09/l701.exe)
 Compute integral first derivatives.
 ... and contract with generalized density number  0.
 Leave Link  701 at Thu Mar 24 15:41:40 2016, MaxMem=    33554432 cpu:         0.0
 (Enter /opt/g09/g09/l702.exe)
 L702 exits ... SP integral derivatives will be done elsewhere.
 Leave Link  702 at Thu Mar 24 15:41:40 2016, MaxMem=    33554432 cpu:         0.0
 (Enter /opt/g09/g09/l703.exe)
 Compute integral first derivatives, UseDBF=F ICtDFT=           0.
 Integral derivatives from FoFJK, PRISM(SPDF).
 Calling FoFJK, ICntrl=      2127 FMM=F ISym2X=0 I1Cent= 0 IOpClX= 0 NMat=1 NMatS=1 NMatT=0.
 FoFJK:  IHMeth= 8 ICntrl=    2127 DoSepK=F KAlg= 0 I1Cent=   0 FoldK=F
 IRaf=         0 NMat=   1 IRICut=       1 DoRegI=T DoRafI=F ISym2E= 0.
 FoFCou: FMM=F IPFlag=           0 FMFlag=      100000 FMFlg1=         800
         NFxFlg=           0 DoJE=F BraDBF=F KetDBF=F FulRan=T
         wScrn=  0.000000 ICntrl=    2127 IOpCl=  0 I1Cent=           0 NGrid=           0
         NMat0=    1 NMatS0=      1 NMatT0=    0 NMatD0=    1 NMtDS0=    0 NMtDT0=    0
 Symmetry not used in FoFCou.
 Leave Link  703 at Thu Mar 24 15:41:40 2016, MaxMem=    33554432 cpu:         0.0
 (Enter /opt/g09/g09/l716.exe)
 Dipole        =-4.99087375D-01-5.97450335D-02 4.41179536D-02
 ***** Axes restored to original set *****
 -------------------------------------------------------------------
 Center     Atomic                   Forces (Hartrees/Bohr)
 Number     Number              X              Y              Z
 -------------------------------------------------------------------
      1        6          -0.022113735   -0.024695918   -0.030149060
      2        6           0.023570226    0.053067487    0.005623169
      3        6           0.002645891    0.001317365   -0.031120106
      4        6           0.019167317    0.015034047    0.036550742
      5        1          -0.001666743   -0.006157323   -0.003663157
      6        1          -0.009174242    0.005593582    0.000575247
      7        1          -0.007931167   -0.015524681   -0.005625791
      8        1           0.014345817   -0.010247803    0.008826619
      9       16          -0.018843363   -0.018386756    0.018982337
 -------------------------------------------------------------------
 Cartesian Forces:  Max     0.053067487 RMS     0.019498751
 Leave Link  716 at Thu Mar 24 15:41:40 2016, MaxMem=    33554432 cpu:         0.0
 (Enter /opt/g09/g09/l103.exe)

 GradGradGradGradGradGradGradGradGradGradGradGradGradGradGradGradGradGrad
 Berny optimization.
 FormGI is forming the generalized inverse of G from B-inverse, IUseBI=4.
 Internal  Forces:  Max     0.022685863 RMS     0.010016604
 Search for a local minimum.
 Step number   1 out of a maximum of   48
 All quantities printed in internal units (Hartrees-Bohrs-Radians)
 RMS Force = .10017D-01 SwitMx=.10000D-02 MixMth= 1
 Mixed Optimization -- RFO/linear search
 Second derivative matrix not updated -- first step.
 ITU=  0
     Eigenvalues ---    0.01360   0.01745   0.02108   0.02195   0.02269
     Eigenvalues ---    0.02466   0.15309   0.15569   0.15726   0.15784
     Eigenvalues ---    0.21811   0.22399   0.24100   0.27658   0.34432
     Eigenvalues ---    0.37742   0.37927   0.39043   0.40229   0.47844
     Eigenvalues ---    0.54225
 RFO step:  Lambda=-2.96651707D-02 EMin= 1.36047835D-02
 Linear search not attempted -- first point.
 Iteration  1 RMS(Cart)=  0.07527466 RMS(Int)=  0.02372930
 Iteration  2 RMS(Cart)=  0.01997823 RMS(Int)=  0.00554919
 Iteration  3 RMS(Cart)=  0.00046029 RMS(Int)=  0.00553090
 Iteration  4 RMS(Cart)=  0.00000140 RMS(Int)=  0.00553090
 Iteration  5 RMS(Cart)=  0.00000001 RMS(Int)=  0.00553090
 ITry= 1 IFail=0 DXMaxC= 3.60D-01 DCOld= 1.00D+10 DXMaxT= 3.00D-01 DXLimC= 3.00D+00 Rises=F
 Variable       Old X    -DE/DX   Delta X   Delta X   Delta X     New X
                                 (Linear)    (Quad)   (Total)
    R1        2.59510  -0.01847   0.00000  -0.03841  -0.03666   2.55844
    R2        2.71194   0.01168   0.00000   0.02756   0.02779   2.73973
    R3        2.01171   0.01630   0.00000   0.03986   0.03986   2.05158
    R4        1.97944   0.01601   0.00000   0.03706   0.03706   2.01650
    R5        3.44771  -0.00722   0.00000  -0.03299  -0.03181   3.41590
    R6        2.53861   0.01658   0.00000   0.03168   0.03010   2.56871
    R7        2.01443   0.00738   0.00000   0.01814   0.01814   2.03256
    R8        3.35517   0.00953   0.00000   0.03542   0.03392   3.38909
    R9        2.06607  -0.00495   0.00000  -0.01324  -0.01324   2.05283
    A1        2.02443  -0.00794   0.00000  -0.02403  -0.03225   1.99218
    A2        2.14678   0.00404   0.00000   0.02269   0.02316   2.16994
    A3        2.08508   0.00549   0.00000   0.02933   0.02985   2.11494
    A4        2.27170  -0.00712   0.00000  -0.01983  -0.01729   2.25441
    A5        1.86132   0.02269   0.00000   0.08476   0.07995   1.94127
    A6        2.13763  -0.01555   0.00000  -0.06648  -0.06408   2.07354
    A7        2.19744   0.00632   0.00000   0.03747   0.03199   2.22943
    A8        1.91923   0.00596   0.00000   0.05972   0.03830   1.95754
    A9        2.14838  -0.00980   0.00000  -0.04888  -0.05380   2.09459
   A10        1.97722  -0.00528   0.00000   0.00968  -0.00643   1.97079
   A11        2.15539  -0.00016   0.00000  -0.00253  -0.00502   2.15037
   A12        2.12464   0.00770   0.00000   0.03941   0.03706   2.16170
   A13        1.59920  -0.01046   0.00000  -0.02647  -0.03890   1.56030
    D1       -2.99524   0.00056   0.00000  -0.00976  -0.00991  -3.00515
    D2       -0.02345  -0.00025   0.00000  -0.02457  -0.02398  -0.04743
    D3        0.39524  -0.00731   0.00000  -0.14074  -0.14096   0.25427
    D4       -2.91616  -0.00812   0.00000  -0.15555  -0.15503  -3.07119
    D5        0.21537  -0.01197   0.00000  -0.21650  -0.21489   0.00049
    D6        3.11736  -0.00068   0.00000   0.00047  -0.00171   3.11564
    D7        3.11741  -0.00452   0.00000  -0.09108  -0.08905   3.02836
    D8       -0.26380   0.00677   0.00000   0.12589   0.12413  -0.13967
    D9       -0.11849   0.00766   0.00000   0.18096   0.17948   0.06099
   D10        2.86940   0.00753   0.00000   0.17154   0.17070   3.04010
   D11        3.04440   0.00432   0.00000   0.08484   0.08249   3.12689
   D12        0.13766  -0.00557   0.00000  -0.12143  -0.12573   0.01193
   D13       -0.29665   0.01664   0.00000   0.34177   0.34403   0.04738
   D14        3.07979   0.00675   0.00000   0.13550   0.13581  -3.06758
   D15        0.24028  -0.01463   0.00000  -0.30419  -0.30161  -0.06133
   D16       -3.09407  -0.00060   0.00000  -0.04460  -0.05216   3.13695
         Item               Value     Threshold  Converged?
 Maximum Force            0.022686     0.000450     NO 
 RMS     Force            0.010017     0.000300     NO 
 Maximum Displacement     0.360465     0.001800     NO 
 RMS     Displacement     0.090513     0.001200     NO 
 Predicted change in Energy=-2.186639D-02
 Lowest energy point so far.  Saving SCF results.
 GradGradGradGradGradGradGradGradGradGradGradGradGradGradGradGradGradGrad

 Leave Link  103 at Thu Mar 24 15:41:40 2016, MaxMem=    33554432 cpu:         0.0
 (Enter /opt/g09/g09/l202.exe)
                          Input orientation:                          
 ---------------------------------------------------------------------
 Center     Atomic      Atomic             Coordinates (Angstroms)
 Number     Number       Type             X           Y           Z
 ---------------------------------------------------------------------
      1          6           0        0.884767   -0.699305   -0.018578
      2          6           0       -0.353681   -1.245916   -0.039247
      3          6           0       -0.356192    1.286585    0.008441
      4          6           0        0.892816    0.750223    0.008449
      5          1           0        1.804477    1.339423    0.050726
      6          1           0       -0.625643    2.327450    0.038157
      7          1           0       -0.640071   -2.269808    0.051831
      8          1           0        1.805344   -1.264532   -0.126707
      9         16           0       -1.632894    0.027855    0.053501
 ---------------------------------------------------------------------
                    Distance matrix (angstroms):
                    1          2          3          4          5
     1  C    0.000000
     2  C    1.353870   0.000000
     3  C    2.341894   2.532951   0.000000
     4  C    1.449802   2.353847   1.359303   0.000000
     5  H    2.237651   3.368934   2.161729   1.086310   0.000000
     6  H    3.383165   3.584536   1.075587   2.189577   2.623326
     7  H    2.190107   1.067085   3.567968   3.387065   4.359170
     8  H    1.085649   2.160876   3.346446   2.215899   2.609993
     9  S    2.621560   1.807617   1.793432   2.627366   3.679095
                    6          7          8          9
     6  H    0.000000
     7  H    4.597301   0.000000
     8  H    4.340416   2.650002   0.000000
     9  S    2.510563   2.502989   3.677529   0.000000
 Stoichiometry    C4H4S
 Framework group  C1[X(C4H4S)]
 Deg. of freedom    21
 Full point group                 C1      NOp   1
 RotChk:  IX=0 Diff= 8.87D-02
 Largest Abelian subgroup         C1      NOp   1
 Largest concise Abelian subgroup C1      NOp   1
                         Standard orientation:                         
 ---------------------------------------------------------------------
 Center     Atomic      Atomic             Coordinates (Angstroms)
 Number     Number       Type             X           Y           Z
 ---------------------------------------------------------------------
      1          6           0       -1.278488    0.727676    0.011343
      2          6           0       -0.039719    1.272353   -0.030409
      3          6           0       -0.041633   -1.260594   -0.026597
      4          6           0       -1.289073   -0.722086    0.013491
      5          1           0       -2.200717   -1.310303    0.068045
      6          1           0        0.226167   -2.302297   -0.021539
      7          1           0        0.251090    2.293999    0.071269
      8          1           0       -2.200197    1.296334   -0.064258
      9         16           0        1.238571   -0.005115    0.008720
 ---------------------------------------------------------------------
 Rotational constants (GHZ):      7.7491741      5.1370284      3.0906896
 Leave Link  202 at Thu Mar 24 15:41:40 2016, MaxMem=    33554432 cpu:         0.0
 (Enter /opt/g09/g09/l301.exe)

 Semi-emprical parameters in input format:
 Method=8 CoreType=1 PeptideFC=0.0130054926 RIJScale=0.4887302135
 ****
 H       
 PQN=1 NValence=1 F0ss=0.4718180406 ZetaOverlap=1.2063753890 U=-0.4026844113
 Beta=-0.2375061252 CoreKO=1.1156935984 KON=0,0,0,1.0502004605 KON=1,0,1,0.9635810405
 KON=0,1,1,0.9330514775 KON=2,1,1,1.0163059844 EISol=-0.4188110042 EHeat=0.0830298228
 Alpha=1.5325669538
 GCore=0.0077972409,1.3730785483,2.0856466358
 GCore=0.0002914631,1.1111893878,3.4323667483
 GCore=-0.0013710866,0.6263466706,3.8061403854
 ****
 C       
 PQN=2,2 NValence=4 F0ss=0.4414293821 F0sp=0.4326790039 F0pp=0.3572497418 F2pp=0.2647976831
 G1sp=0.2634149259
 ZetaOverlap=1.7362973768,1.4000694049
 U=-1.8762342383,-1.4260254375
 Beta=-0.5795077006,-0.3444706868 DDN=0,1,0.7210584891 DDN=1,1,0.8450245162
 CoreKO=1.1744187079 KON=0,0,0,1.0278175134 KON=1,0,1,0.8693172390 KON=0,1,1,0.8629983758
 KON=2,1,1,0.6994472246 EISol=-4.4398989268 EHeat=0.2723305520 Alpha=1.4189169450
 DipHyp=1.4420340120
 GCore=0.0008728220,1.1251244275,2.8122930267
 GCore=0.0032623705,1.0881672798,3.9097056648
 GCore=-0.0012619178,1.3179203212,3.6583902124
 GCore=-0.0001042443,1.0588327379,4.7350277079
 ****
 S       
 PQN=3,3 NValence=6 F0ss=0.4504516255 F0sp=0.3278525659 F0pp=0.3178991935 F2pp=0.2783203788
 G1sp=0.2994566759
 ZetaOverlap=2.2203118665,1.5881872395,1.0271293280
 U=-2.2003585331,-1.8080890038
 Beta=-0.1918869010,-0.2888968783 DDN=0,1,0.9096756330 DDN=1,1,1.0465594377
 CoreKO=1.2688604297 KON=0,0,0,1.0039216616 KON=1,0,1,0.8467026664 KON=0,1,1,0.8718632047
 KON=2,1,1,0.7421927012 EISol=-7.0460287497 EHeat=0.1058151363 Alpha=1.2475155193
 DipHyp=1.8192465971
 GCore=-0.0427564146,1.1863026460,1.1122669290
 GCore=-0.0009262104,1.7337505786,3.0374147736
 GCore=0.0007715030,3.5545222057,4.4470906627
 ****
 
 Standard basis: VSTO-6G (5D, 7F)
 Ernie: Thresh=  0.10000D-02 Tol=  0.10000D-05 Strict=F.
  NNHCO=     0 NNPyr=     0 NCTC=     0               EPep=         0.000000000
    EC=        61.719431329  ECS=         1.529369985   EG=         0.166217982
   EHC=         0.000000000  EAt=       -26.480868474  AtH=         1.527256636
 EPDDG=         0.000000000  ECC=        63.415019297 EAtT=        28.008125109
 There are    24 symmetry adapted cartesian basis functions of A   symmetry.
 There are    24 symmetry adapted basis functions of A   symmetry.
    24 basis functions,   144 primitive gaussians,    24 cartesian basis functions
    13 alpha electrons       13 beta electrons
       nuclear repulsion energy        91.4231444059 Hartrees.
 IExCor=    0 DFT=F Ex=HF Corr=None ExCW=0 ScaHFX=  1.000000
 ScaDFX=  1.000000  1.000000  1.000000  1.000000 ScalE2=  1.000000  1.000000
 IRadAn=      0 IRanWt=     -1 IRanGd=            0 ICorTp=0 IEmpDi=  4
 Integral buffers will be    131072 words long.
 Regular integral format.
 Two-electron integral symmetry is turned off.
 Leave Link  301 at Thu Mar 24 15:41:40 2016, MaxMem=    33554432 cpu:         0.0
 (Enter /opt/g09/g09/l302.exe)
 Do NDO integrals.
 NPDir=0 NMtPBC=     1 NCelOv=     1 NCel=       1 NClECP=     1 NCelD=      1
         NCelK=      1 NCelE2=     1 NClLst=     1 CellRange=     0.0.
 One-electron integrals computed using PRISM.
 NBasis=    24 RedAO= F EigKep=  0.00D+00  NBF=    24
 NBsUse=    24 1.00D-04 EigRej=  0.00D+00 NBFU=    24
 Leave Link  302 at Thu Mar 24 15:41:40 2016, MaxMem=    33554432 cpu:         0.0
 (Enter /opt/g09/g09/l303.exe)
 DipDrv:  MaxL=1.
 Leave Link  303 at Thu Mar 24 15:41:40 2016, MaxMem=    33554432 cpu:         0.0
 (Enter /opt/g09/g09/l401.exe)
 Initial guess from the checkpoint file:  "freq.chk"
 B after Tr=     0.000000    0.000000    0.000000
         Rot=    0.999986   -0.000262   -0.000120   -0.005337 Ang=  -0.61 deg.
 Guess basis will be translated and rotated to current coordinates.
 JPrj=0 DoOrth=T DoCkMO=T.
 Leave Link  401 at Thu Mar 24 15:41:40 2016, MaxMem=    33554432 cpu:         0.0
 (Enter /opt/g09/g09/l502.exe)
 Closed shell SCF:
 Using DIIS extrapolation, IDIIS=  1040.
 Overlap will be assumed to be unity.
 Two-electron integral symmetry not used.
 Keep J ints in memory in canonical form, NReq=888082.
 IVT=       79475 IEndB=       79475 NGot=    33554432 MDV=    33473473
 LenX=    33473473 LenY=    33472456
 Requested convergence on RMS density matrix=1.00D-08 within 128 cycles.
 Requested convergence on MAX density matrix=1.00D-06.
 Requested convergence on             energy=1.00D-06.
 No special actions if energy rises.
 FoFCou: FMM=F IPFlag=           0 FMFlag=           0 FMFlg1=           0
         NFxFlg=           0 DoJE=F BraDBF=F KetDBF=F FulRan=T
         wScrn=  0.000000 ICntrl=     600 IOpCl=  2 I1Cent=           0 NGrid=           0
         NMat0=    1 NMatS0=     54 NMatT0=    0 NMatD0=    1 NMtDS0=    0 NMtDT0=    0
 Symmetry not used in FoFCou.

 Cycle   1  Pass 1  IDiag  1:
 E=-0.887225545362512    
 DIIS: error= 2.31D-02 at cycle   1 NSaved=   1.
 NSaved= 1 IEnMin= 1 EnMin=-0.887225545362512     IErMin= 1 ErrMin= 2.31D-02
 ErrMax= 2.31D-02  0.00D+00 EMaxC= 1.00D-01 BMatC= 1.24D-02 BMatP= 1.24D-02
 IDIUse=3 WtCom= 7.69D-01 WtEn= 2.31D-01
 Coeff-Com:  0.100D+01
 Coeff-En:   0.100D+01
 Coeff:      0.100D+01
 GapD=    2.000 DampG=2.000 DampE=0.500 DampFc=1.0000 IDamp=-1.
 RMSDP=7.81D-03 MaxDP=5.28D-02              OVMax= 0.00D+00

 Cycle   2  Pass 1  IDiag  1:
 E=-0.925740183685974     Delta-E=       -0.038514638323 Rises=F Damp=F
 DIIS: error= 8.47D-03 at cycle   2 NSaved=   2.
 NSaved= 2 IEnMin= 2 EnMin=-0.925740183685974     IErMin= 2 ErrMin= 8.47D-03
 ErrMax= 8.47D-03  0.00D+00 EMaxC= 1.00D-01 BMatC= 1.62D-03 BMatP= 1.24D-02
 IDIUse=3 WtCom= 9.15D-01 WtEn= 8.47D-02
 Coeff-Com: -0.489D+00 0.149D+01
 Coeff-En:   0.000D+00 0.100D+01
 Coeff:     -0.448D+00 0.145D+01
 RMSDP=4.75D-03 MaxDP=3.24D-02 DE=-3.85D-02 OVMax= 0.00D+00

 Cycle   3  Pass 1  IDiag  3:
 E=-0.933032261781023     Delta-E=       -0.007292078095 Rises=F Damp=F
 DIIS: error= 1.40D-03 at cycle   3 NSaved=   3.
 NSaved= 3 IEnMin= 3 EnMin=-0.933032261781023     IErMin= 3 ErrMin= 1.40D-03
 ErrMax= 1.40D-03  0.00D+00 EMaxC= 1.00D-01 BMatC= 5.56D-05 BMatP= 1.62D-03
 IDIUse=3 WtCom= 9.86D-01 WtEn= 1.40D-02
 Coeff-Com:  0.207D+00-0.761D+00 0.155D+01
 Coeff-En:   0.000D+00 0.000D+00 0.100D+01
 Coeff:      0.204D+00-0.751D+00 0.155D+01
 Gap=     0.414 Goal=   None    Shift=    0.000
 RMSDP=1.27D-03 MaxDP=7.38D-03 DE=-7.29D-03 OVMax= 9.97D-03

 Cycle   4  Pass 1  IDiag  3:
 E=-0.933378031772492     Delta-E=       -0.000345769991 Rises=F Damp=F
 DIIS: error= 1.42D-04 at cycle   4 NSaved=   4.
 NSaved= 4 IEnMin= 4 EnMin=-0.933378031772492     IErMin= 4 ErrMin= 1.42D-04
 ErrMax= 1.42D-04  0.00D+00 EMaxC= 1.00D-01 BMatC= 1.52D-06 BMatP= 5.56D-05
 IDIUse=3 WtCom= 9.99D-01 WtEn= 1.42D-03
 Coeff-Com: -0.961D-01 0.360D+00-0.813D+00 0.155D+01
 Coeff-En:   0.000D+00 0.000D+00 0.000D+00 0.100D+01
 Coeff:     -0.960D-01 0.359D+00-0.812D+00 0.155D+01
 Gap=     0.415 Goal=   None    Shift=    0.000
 RMSDP=2.07D-04 MaxDP=8.87D-04 DE=-3.46D-04 OVMax= 1.39D-03

 Cycle   5  Pass 1  IDiag  3:
 E=-0.933388124875037     Delta-E=       -0.000010093103 Rises=F Damp=F
 DIIS: error= 6.71D-05 at cycle   5 NSaved=   5.
 NSaved= 5 IEnMin= 5 EnMin=-0.933388124875037     IErMin= 5 ErrMin= 6.71D-05
 ErrMax= 6.71D-05  0.00D+00 EMaxC= 1.00D-01 BMatC= 1.69D-07 BMatP= 1.52D-06
 IDIUse=1 WtCom= 1.00D+00 WtEn= 0.00D+00
 Coeff-Com:  0.254D-01-0.957D-01 0.229D+00-0.645D+00 0.149D+01
 Coeff:      0.254D-01-0.957D-01 0.229D+00-0.645D+00 0.149D+01
 Gap=     0.415 Goal=   None    Shift=    0.000
 RMSDP=6.40D-05 MaxDP=4.33D-04 DE=-1.01D-05 OVMax= 3.47D-04

 Cycle   6  Pass 1  IDiag  3:
 E=-0.933389305602887     Delta-E=       -0.000001180728 Rises=F Damp=F
 DIIS: error= 3.58D-05 at cycle   6 NSaved=   6.
 NSaved= 6 IEnMin= 6 EnMin=-0.933389305602887     IErMin= 6 ErrMin= 3.58D-05
 ErrMax= 3.58D-05  0.00D+00 EMaxC= 1.00D-01 BMatC= 4.12D-08 BMatP= 1.69D-07
 IDIUse=1 WtCom= 1.00D+00 WtEn= 0.00D+00
 Coeff-Com: -0.718D-02 0.273D-01-0.727D-01 0.323D+00-0.134D+01 0.207D+01
 Coeff:     -0.718D-02 0.273D-01-0.727D-01 0.323D+00-0.134D+01 0.207D+01
 Gap=     0.415 Goal=   None    Shift=    0.000
 RMSDP=4.53D-05 MaxDP=3.61D-04 DE=-1.18D-06 OVMax= 2.40D-04

 Cycle   7  Pass 1  IDiag  3:
 E=-0.933389678805256     Delta-E=       -0.000000373202 Rises=F Damp=F
 DIIS: error= 1.09D-05 at cycle   7 NSaved=   7.
 NSaved= 7 IEnMin= 7 EnMin=-0.933389678805256     IErMin= 7 ErrMin= 1.09D-05
 ErrMax= 1.09D-05  0.00D+00 EMaxC= 1.00D-01 BMatC= 4.48D-09 BMatP= 4.12D-08
 IDIUse=1 WtCom= 1.00D+00 WtEn= 0.00D+00
 Coeff-Com: -0.249D-03 0.806D-03 0.223D-02-0.771D-01 0.530D+00-0.119D+01
 Coeff-Com:  0.173D+01
 Coeff:     -0.249D-03 0.806D-03 0.223D-02-0.771D-01 0.530D+00-0.119D+01
 Coeff:      0.173D+01
 Gap=     0.415 Goal=   None    Shift=    0.000
 RMSDP=1.62D-05 MaxDP=1.29D-04 DE=-3.73D-07 OVMax= 1.06D-04

 Cycle   8  Pass 1  IDiag  3:
 E=-0.933389718893011     Delta-E=       -0.000000040088 Rises=F Damp=F
 DIIS: error= 3.86D-06 at cycle   8 NSaved=   8.
 NSaved= 8 IEnMin= 8 EnMin=-0.933389718893011     IErMin= 8 ErrMin= 3.86D-06
 ErrMax= 3.86D-06  0.00D+00 EMaxC= 1.00D-01 BMatC= 4.89D-10 BMatP= 4.48D-09
 IDIUse=1 WtCom= 1.00D+00 WtEn= 0.00D+00
 Coeff-Com:  0.521D-03-0.188D-02 0.205D-02 0.359D-01-0.287D+00 0.690D+00
 Coeff-Com: -0.120D+01 0.176D+01
 Coeff:      0.521D-03-0.188D-02 0.205D-02 0.359D-01-0.287D+00 0.690D+00
 Coeff:     -0.120D+01 0.176D+01
 Gap=     0.415 Goal=   None    Shift=    0.000
 RMSDP=4.15D-06 MaxDP=3.03D-05 DE=-4.01D-08 OVMax= 3.50D-05

 Cycle   9  Pass 1  IDiag  3:
 E=-0.933389722989546     Delta-E=       -0.000000004097 Rises=F Damp=F
 DIIS: error= 2.01D-06 at cycle   9 NSaved=   9.
 NSaved= 9 IEnMin= 9 EnMin=-0.933389722989546     IErMin= 9 ErrMin= 2.01D-06
 ErrMax= 2.01D-06  0.00D+00 EMaxC= 1.00D-01 BMatC= 1.24D-10 BMatP= 4.89D-10
 IDIUse=1 WtCom= 1.00D+00 WtEn= 0.00D+00
 Coeff-Com: -0.503D-03 0.185D-02-0.312D-02-0.133D-01 0.137D+00-0.355D+00
 Coeff-Com:  0.715D+00-0.173D+01 0.225D+01
 Coeff:     -0.503D-03 0.185D-02-0.312D-02-0.133D-01 0.137D+00-0.355D+00
 Coeff:      0.715D+00-0.173D+01 0.225D+01
 Gap=     0.415 Goal=   None    Shift=    0.000
 RMSDP=3.12D-06 MaxDP=2.62D-05 DE=-4.10D-09 OVMax= 2.47D-05

 Cycle  10  Pass 1  IDiag  3:
 E=-0.933389724294017     Delta-E=       -0.000000001304 Rises=F Damp=F
 DIIS: error= 4.10D-07 at cycle  10 NSaved=  10.
 NSaved=10 IEnMin=10 EnMin=-0.933389724294017     IErMin=10 ErrMin= 4.10D-07
 ErrMax= 4.10D-07  0.00D+00 EMaxC= 1.00D-01 BMatC= 6.95D-12 BMatP= 1.24D-10
 IDIUse=1 WtCom= 1.00D+00 WtEn= 0.00D+00
 Coeff-Com:  0.912D-04-0.338D-03 0.619D-03 0.164D-02-0.204D-01 0.567D-01
 Coeff-Com: -0.134D+00 0.457D+00-0.873D+00 0.151D+01
 Coeff:      0.912D-04-0.338D-03 0.619D-03 0.164D-02-0.204D-01 0.567D-01
 Coeff:     -0.134D+00 0.457D+00-0.873D+00 0.151D+01
 Gap=     0.415 Goal=   None    Shift=    0.000
 RMSDP=6.89D-07 MaxDP=5.62D-06 DE=-1.30D-09 OVMax= 4.64D-06

 Cycle  11  Pass 1  IDiag  3:
 E=-0.933389724355010     Delta-E=       -0.000000000061 Rises=F Damp=F
 DIIS: error= 6.85D-08 at cycle  11 NSaved=  11.
 NSaved=11 IEnMin=11 EnMin=-0.933389724355010     IErMin=11 ErrMin= 6.85D-08
 ErrMax= 6.85D-08  0.00D+00 EMaxC= 1.00D-01 BMatC= 2.87D-13 BMatP= 6.95D-12
 IDIUse=1 WtCom= 1.00D+00 WtEn= 0.00D+00
 Coeff-Com: -0.101D-04 0.373D-04-0.571D-04-0.487D-03 0.478D-02-0.135D-01
 Coeff-Com:  0.369D-01-0.158D+00 0.351D+00-0.785D+00 0.157D+01
 Coeff:     -0.101D-04 0.373D-04-0.571D-04-0.487D-03 0.478D-02-0.135D-01
 Coeff:      0.369D-01-0.158D+00 0.351D+00-0.785D+00 0.157D+01
 Gap=     0.415 Goal=   None    Shift=    0.000
 RMSDP=1.06D-07 MaxDP=5.81D-07 DE=-6.10D-11 OVMax= 7.59D-07

 Cycle  12  Pass 1  IDiag  3:
 E=-0.933389724357056     Delta-E=       -0.000000000002 Rises=F Damp=F
 DIIS: error= 1.13D-08 at cycle  12 NSaved=  12.
 NSaved=12 IEnMin=12 EnMin=-0.933389724357056     IErMin=12 ErrMin= 1.13D-08
 ErrMax= 1.13D-08  0.00D+00 EMaxC= 1.00D-01 BMatC= 1.08D-14 BMatP= 2.87D-13
 IDIUse=1 WtCom= 1.00D+00 WtEn= 0.00D+00
 Coeff-Com:  0.238D-05-0.870D-05 0.104D-04 0.193D-03-0.181D-02 0.516D-02
 Coeff-Com: -0.152D-01 0.705D-01-0.162D+00 0.377D+00-0.867D+00 0.159D+01
 Coeff:      0.238D-05-0.870D-05 0.104D-04 0.193D-03-0.181D-02 0.516D-02
 Coeff:     -0.152D-01 0.705D-01-0.162D+00 0.377D+00-0.867D+00 0.159D+01
 Gap=     0.415 Goal=   None    Shift=    0.000
 RMSDP=2.13D-08 MaxDP=1.04D-07 DE=-2.05D-12 OVMax= 1.70D-07

 Cycle  13  Pass 1  IDiag  3:
 E=-0.933389724357255     Delta-E=        0.000000000000 Rises=F Damp=F
 DIIS: error= 1.65D-09 at cycle  13 NSaved=  13.
 NSaved=13 IEnMin=13 EnMin=-0.933389724357255     IErMin=13 ErrMin= 1.65D-09
 ErrMax= 1.65D-09  0.00D+00 EMaxC= 1.00D-01 BMatC= 1.72D-16 BMatP= 1.08D-14
 IDIUse=1 WtCom= 1.00D+00 WtEn= 0.00D+00
 Coeff-Com: -0.204D-06 0.718D-06 0.772D-06-0.607D-04 0.519D-03-0.146D-02
 Coeff-Com:  0.440D-02-0.209D-01 0.484D-01-0.114D+00 0.268D+00-0.565D+00
 Coeff-Com:  0.138D+01
 Coeff:     -0.204D-06 0.718D-06 0.772D-06-0.607D-04 0.519D-03-0.146D-02
 Coeff:      0.440D-02-0.209D-01 0.484D-01-0.114D+00 0.268D+00-0.565D+00
 Coeff:      0.138D+01
 Gap=     0.415 Goal=   None    Shift=    0.000
 RMSDP=2.17D-09 MaxDP=1.14D-08 DE=-1.99D-13 OVMax= 1.72D-08

 Cycle  14  Pass 2  IDiag  1:
 SCF Done:  E(RAM1) = -0.933389724357     A.U. after   14 cycles
            NFock= 13  Conv=0.22D-08     -V/T= 0.9370
 KE=-1.481841608912D+01 PE=-1.554636489815D+02 EE= 7.792553094041D+01
 Leave Link  502 at Thu Mar 24 15:41:40 2016, MaxMem=    33554432 cpu:         0.0
 (Enter /opt/g09/g09/l701.exe)
 Compute integral first derivatives.
 ... and contract with generalized density number  0.
 Leave Link  701 at Thu Mar 24 15:41:40 2016, MaxMem=    33554432 cpu:         0.0
 (Enter /opt/g09/g09/l702.exe)
 L702 exits ... SP integral derivatives will be done elsewhere.
 Leave Link  702 at Thu Mar 24 15:41:40 2016, MaxMem=    33554432 cpu:         0.0
 (Enter /opt/g09/g09/l703.exe)
 Compute integral first derivatives, UseDBF=F ICtDFT=           0.
 Integral derivatives from FoFJK, PRISM(SPDF).
 Calling FoFJK, ICntrl=      2127 FMM=F ISym2X=0 I1Cent= 0 IOpClX= 0 NMat=1 NMatS=1 NMatT=0.
 FoFJK:  IHMeth= 8 ICntrl=    2127 DoSepK=F KAlg= 0 I1Cent=   0 FoldK=F
 IRaf=         0 NMat=   1 IRICut=       1 DoRegI=T DoRafI=F ISym2E= 0.
 FoFCou: FMM=F IPFlag=           0 FMFlag=      100000 FMFlg1=         800
         NFxFlg=           0 DoJE=F BraDBF=F KetDBF=F FulRan=T
         wScrn=  0.000000 ICntrl=    2127 IOpCl=  0 I1Cent=           0 NGrid=           0
         NMat0=    1 NMatS0=      1 NMatT0=    0 NMatD0=    1 NMtDS0=    0 NMtDT0=    0
 Symmetry not used in FoFCou.
 Leave Link  703 at Thu Mar 24 15:41:40 2016, MaxMem=    33554432 cpu:         0.0
 (Enter /opt/g09/g09/l716.exe)
 Dipole        =-5.16206381D-01-1.12930567D-02 3.97545685D-02
 ***** Axes restored to original set *****
 -------------------------------------------------------------------
 Center     Atomic                   Forces (Hartrees/Bohr)
 Number     Number              X              Y              Z
 -------------------------------------------------------------------
      1        6          -0.002145371   -0.005651361   -0.012473063
      2        6           0.006174814    0.011649317    0.016291791
      3        6           0.013866115   -0.002464565    0.007607591
      4        6          -0.011022900    0.008271225   -0.000603096
      5        1          -0.001327527   -0.002568674   -0.002438963
      6        1          -0.003564633   -0.001056608   -0.000973884
      7        1          -0.003746530   -0.004812368   -0.005927308
      8        1          -0.000542475   -0.000345971    0.005013721
      9       16           0.002308507   -0.003020995   -0.006496789
 -------------------------------------------------------------------
 Cartesian Forces:  Max     0.016291791 RMS     0.006835363
 Leave Link  716 at Thu Mar 24 15:41:40 2016, MaxMem=    33554432 cpu:         0.0
 (Enter /opt/g09/g09/l103.exe)

 GradGradGradGradGradGradGradGradGradGradGradGradGradGradGradGradGradGrad
 Berny optimization.
 Using GEDIIS/GDIIS optimizer.
 FormGI is forming the generalized inverse of G from B-inverse, IUseBI=4.
 Internal  Forces:  Max     0.010128532 RMS     0.003158645
 Search for a local minimum.
 Step number   2 out of a maximum of   48
 All quantities printed in internal units (Hartrees-Bohrs-Radians)
 RMS Force = .31586D-02 SwitMx=.10000D-02 MixMth= 1
 Mixed Optimization -- RFO/linear search
 Update second derivatives using D2CorX and points    1    2
 DE= -1.38D-02 DEPred=-2.19D-02 R= 6.33D-01
 TightC=F SS=  1.41D+00  RLast= 6.77D-01 DXNew= 5.0454D-01 2.0320D+00
 Trust test= 6.33D-01 RLast= 6.77D-01 DXMaxT set to 5.05D-01
 ITU=  1  0
 Use linear search instead of GDIIS.
     Eigenvalues ---    0.01538   0.01737   0.01939   0.02155   0.02416
     Eigenvalues ---    0.05099   0.14417   0.15783   0.15895   0.15988
     Eigenvalues ---    0.20197   0.22155   0.24124   0.27556   0.34260
     Eigenvalues ---    0.36815   0.37777   0.38805   0.39773   0.46702
     Eigenvalues ---    0.55493
 RFO step:  Lambda=-5.01323602D-03 EMin= 1.53829116D-02
 Quartic linear search produced a step of -0.04613.
 Iteration  1 RMS(Cart)=  0.03304388 RMS(Int)=  0.00610254
 Iteration  2 RMS(Cart)=  0.00315321 RMS(Int)=  0.00289531
 Iteration  3 RMS(Cart)=  0.00001656 RMS(Int)=  0.00289521
 Iteration  4 RMS(Cart)=  0.00000008 RMS(Int)=  0.00289521
 ITry= 1 IFail=0 DXMaxC= 1.22D-01 DCOld= 1.00D+10 DXMaxT= 5.05D-01 DXLimC= 3.00D+00 Rises=F
 Variable       Old X    -DE/DX   Delta X   Delta X   Delta X     New X
                                 (Linear)    (Quad)   (Total)
    R1        2.55844  -0.00575   0.00169  -0.02255  -0.01981   2.53863
    R2        2.73973   0.00338  -0.00128   0.01620   0.01513   2.75486
    R3        2.05158  -0.00078  -0.00184   0.01083   0.00899   2.06057
    R4        2.01650   0.00512  -0.00171   0.02377   0.02206   2.03855
    R5        3.41590  -0.00498   0.00147  -0.02839  -0.02633   3.38957
    R6        2.56871  -0.01013  -0.00139  -0.00744  -0.00970   2.55901
    R7        2.03256  -0.00016  -0.00084   0.00541   0.00458   2.03714
    R8        3.38909  -0.00072  -0.00156   0.00882   0.00637   3.39546
    R9        2.05283  -0.00260   0.00061  -0.01130  -0.01069   2.04214
    A1        1.99218  -0.00180   0.00149  -0.01941  -0.01894   1.97324
    A2        2.16994   0.00058  -0.00107   0.01394   0.00909   2.17904
    A3        2.11494   0.00147  -0.00138   0.02089   0.01572   2.13066
    A4        2.25441   0.00264   0.00080   0.02485   0.01566   2.27007
    A5        1.94127   0.00115  -0.00369   0.03670   0.02613   1.96741
    A6        2.07354  -0.00277   0.00296  -0.02299  -0.02969   2.04385
    A7        2.22943   0.00400  -0.00148   0.03330   0.03194   2.26136
    A8        1.95754  -0.00016  -0.00177   0.00828   0.00476   1.96230
    A9        2.09459  -0.00362   0.00248  -0.03785  -0.03522   2.05937
   A10        1.97079   0.00125   0.00030  -0.00234  -0.00230   1.96849
   A11        2.15037  -0.00213   0.00023  -0.01357  -0.01326   2.13711
   A12        2.16170   0.00088  -0.00171   0.01729   0.01569   2.17739
   A13        1.56030  -0.00008   0.00179  -0.01364  -0.01193   1.54837
    D1       -3.00515  -0.00292   0.00046  -0.10031  -0.10221  -3.10737
    D2       -0.04743   0.00339   0.00111   0.14903   0.15007   0.10264
    D3        0.25427  -0.00538   0.00650  -0.24942  -0.24388   0.01039
    D4       -3.07119   0.00093   0.00715  -0.00008   0.00840  -3.06279
    D5        0.00049  -0.00036   0.00991  -0.08744  -0.07647  -0.07599
    D6        3.11564  -0.00025   0.00008  -0.03097  -0.02988   3.08577
    D7        3.02836   0.00195   0.00411   0.05607   0.06033   3.08869
    D8       -0.13967   0.00207  -0.00573   0.11253   0.10693  -0.03274
    D9        0.06099  -0.00417  -0.00828  -0.13195  -0.14043  -0.07944
   D10        3.04010   0.00200  -0.00787   0.09323   0.08086   3.12096
   D11        3.12689   0.00092  -0.00381   0.05007   0.04739  -3.10891
   D12        0.01193   0.00086   0.00580  -0.00627   0.00004   0.01198
   D13        0.04738  -0.00297  -0.01587  -0.01938  -0.03404   0.01333
   D14       -3.06758  -0.00303  -0.00627  -0.07572  -0.08139   3.13422
   D15       -0.06133   0.00404   0.01391   0.08476   0.09651   0.03518
   D16        3.13695   0.00018   0.00241   0.01865   0.02293  -3.12331
         Item               Value     Threshold  Converged?
 Maximum Force            0.010129     0.000450     NO 
 RMS     Force            0.003159     0.000300     NO 
 Maximum Displacement     0.121975     0.001800     NO 
 RMS     Displacement     0.033918     0.001200     NO 
 Predicted change in Energy=-2.993895D-03
 Lowest energy point so far.  Saving SCF results.
 GradGradGradGradGradGradGradGradGradGradGradGradGradGradGradGradGradGrad

 Leave Link  103 at Thu Mar 24 15:41:40 2016, MaxMem=    33554432 cpu:         0.0
 (Enter /opt/g09/g09/l202.exe)
                          Input orientation:                          
 ---------------------------------------------------------------------
 Center     Atomic      Atomic             Coordinates (Angstroms)
 Number     Number       Type             X           Y           Z
 ---------------------------------------------------------------------
      1          6           0        0.892348   -0.700406   -0.045470
      2          6           0       -0.342098   -1.225593    0.025299
      3          6           0       -0.349074    1.284609    0.036338
      4          6           0        0.897536    0.756118    0.015438
      5          1           0        1.811375    1.332896    0.022033
      6          1           0       -0.656772    2.317651    0.052058
      7          1           0       -0.658474   -2.256876    0.034055
      8          1           0        1.812967   -1.280252   -0.117729
      9         16           0       -1.628885    0.023828    0.004550
 ---------------------------------------------------------------------
                    Distance matrix (angstroms):
                    1          2          3          4          5
     1  C    0.000000
     2  C    1.343386   0.000000
     3  C    2.342670   2.510235   0.000000
     4  C    1.457807   2.337513   1.354170   0.000000
     5  H    2.232372   3.344147   2.161036   1.080656   0.000000
     6  H    3.393811   3.557290   1.078008   2.203543   2.657517
     7  H    2.198629   1.078756   3.554975   3.391113   4.357380
     8  H    1.090405   2.160498   3.358076   2.236639   2.616883
     9  S    2.623667   1.793684   1.796801   2.630432   3.680944
                    6          7          8          9
     6  H    0.000000
     7  H    4.574563   0.000000
     8  H    4.367304   2.661739   0.000000
     9  S    2.491764   2.478745   3.682651   0.000000
 Stoichiometry    C4H4S
 Framework group  C1[X(C4H4S)]
 Deg. of freedom    21
 Full point group                 C1      NOp   1
 RotChk:  IX=1 Diff= 2.12D-02
 Largest Abelian subgroup         C1      NOp   1
 Largest concise Abelian subgroup C1      NOp   1
                         Standard orientation:                         
 ---------------------------------------------------------------------
 Center     Atomic      Atomic             Coordinates (Angstroms)
 Number     Number       Type             X           Y           Z
 ---------------------------------------------------------------------
      1          6           0       -1.280933    0.731081   -0.027778
      2          6           0       -0.044498    1.252169    0.038416
      3          6           0       -0.043878   -1.257932    0.012527
      4          6           0       -1.289269   -0.726165    0.011786
      5          1           0       -2.204480   -1.300755    0.018998
      6          1           0        0.261299   -2.291839    0.010016
      7          1           0        0.274604    2.282441    0.059167
      8          1           0       -2.200727    1.314162   -0.082358
      9         16           0        1.238798    0.000067   -0.013471
 ---------------------------------------------------------------------
 Rotational constants (GHZ):      7.8253888      5.1283363      3.0998274
 Leave Link  202 at Thu Mar 24 15:41:40 2016, MaxMem=    33554432 cpu:         0.0
 (Enter /opt/g09/g09/l301.exe)

 Semi-emprical parameters in input format:
 Method=8 CoreType=1 PeptideFC=0.0130054926 RIJScale=0.4887302135
 ****
 H       
 PQN=1 NValence=1 F0ss=0.4718180406 ZetaOverlap=1.2063753890 U=-0.4026844113
 Beta=-0.2375061252 CoreKO=1.1156935984 KON=0,0,0,1.0502004605 KON=1,0,1,0.9635810405
 KON=0,1,1,0.9330514775 KON=2,1,1,1.0163059844 EISol=-0.4188110042 EHeat=0.0830298228
 Alpha=1.5325669538
 GCore=0.0077972409,1.3730785483,2.0856466358
 GCore=0.0002914631,1.1111893878,3.4323667483
 GCore=-0.0013710866,0.6263466706,3.8061403854
 ****
 C       
 PQN=2,2 NValence=4 F0ss=0.4414293821 F0sp=0.4326790039 F0pp=0.3572497418 F2pp=0.2647976831
 G1sp=0.2634149259
 ZetaOverlap=1.7362973768,1.4000694049
 U=-1.8762342383,-1.4260254375
 Beta=-0.5795077006,-0.3444706868 DDN=0,1,0.7210584891 DDN=1,1,0.8450245162
 CoreKO=1.1744187079 KON=0,0,0,1.0278175134 KON=1,0,1,0.8693172390 KON=0,1,1,0.8629983758
 KON=2,1,1,0.6994472246 EISol=-4.4398989268 EHeat=0.2723305520 Alpha=1.4189169450
 DipHyp=1.4420340120
 GCore=0.0008728220,1.1251244275,2.8122930267
 GCore=0.0032623705,1.0881672798,3.9097056648
 GCore=-0.0012619178,1.3179203212,3.6583902124
 GCore=-0.0001042443,1.0588327379,4.7350277079
 ****
 S       
 PQN=3,3 NValence=6 F0ss=0.4504516255 F0sp=0.3278525659 F0pp=0.3178991935 F2pp=0.2783203788
 G1sp=0.2994566759
 ZetaOverlap=2.2203118665,1.5881872395,1.0271293280
 U=-2.2003585331,-1.8080890038
 Beta=-0.1918869010,-0.2888968783 DDN=0,1,0.9096756330 DDN=1,1,1.0465594377
 CoreKO=1.2688604297 KON=0,0,0,1.0039216616 KON=1,0,1,0.8467026664 KON=0,1,1,0.8718632047
 KON=2,1,1,0.7421927012 EISol=-7.0460287497 EHeat=0.1058151363 Alpha=1.2475155193
 DipHyp=1.8192465971
 GCore=-0.0427564146,1.1863026460,1.1122669290
 GCore=-0.0009262104,1.7337505786,3.0374147736
 GCore=0.0007715030,3.5545222057,4.4470906627
 ****
 
 Standard basis: VSTO-6G (5D, 7F)
 Ernie: Thresh=  0.10000D-02 Tol=  0.10000D-05 Strict=F.
  NNHCO=     0 NNPyr=     0 NCTC=     0               EPep=         0.000000000
    EC=        61.786520665  ECS=         1.535974104   EG=         0.166628439
   EHC=         0.000000000  EAt=       -26.480868474  AtH=         1.527256636
 EPDDG=         0.000000000  ECC=        63.489123207 EAtT=        28.008125109
 There are    24 symmetry adapted cartesian basis functions of A   symmetry.
 There are    24 symmetry adapted basis functions of A   symmetry.
    24 basis functions,   144 primitive gaussians,    24 cartesian basis functions
    13 alpha electrons       13 beta electrons
       nuclear repulsion energy        91.4972483165 Hartrees.
 IExCor=    0 DFT=F Ex=HF Corr=None ExCW=0 ScaHFX=  1.000000
 ScaDFX=  1.000000  1.000000  1.000000  1.000000 ScalE2=  1.000000  1.000000
 IRadAn=      0 IRanWt=     -1 IRanGd=            0 ICorTp=0 IEmpDi=  4
 Integral buffers will be    131072 words long.
 Regular integral format.
 Two-electron integral symmetry is turned off.
 Leave Link  301 at Thu Mar 24 15:41:40 2016, MaxMem=    33554432 cpu:         0.0
 (Enter /opt/g09/g09/l302.exe)
 Do NDO integrals.
 NPDir=0 NMtPBC=     1 NCelOv=     1 NCel=       1 NClECP=     1 NCelD=      1
         NCelK=      1 NCelE2=     1 NClLst=     1 CellRange=     0.0.
 One-electron integrals computed using PRISM.
 NBasis=    24 RedAO= F EigKep=  0.00D+00  NBF=    24
 NBsUse=    24 1.00D-04 EigRej=  0.00D+00 NBFU=    24
 Leave Link  302 at Thu Mar 24 15:41:40 2016, MaxMem=    33554432 cpu:         0.0
 (Enter /opt/g09/g09/l303.exe)
 DipDrv:  MaxL=1.
 Leave Link  303 at Thu Mar 24 15:41:40 2016, MaxMem=    33554432 cpu:         0.0
 (Enter /opt/g09/g09/l401.exe)
 Initial guess from the checkpoint file:  "freq.chk"
 B after Tr=     0.000000    0.000000    0.000000
         Rot=    1.000000   -0.000076   -0.000024   -0.000553 Ang=  -0.06 deg.
 Guess basis will be translated and rotated to current coordinates.
 JPrj=0 DoOrth=T DoCkMO=T.
 Leave Link  401 at Thu Mar 24 15:41:40 2016, MaxMem=    33554432 cpu:         0.0
 (Enter /opt/g09/g09/l502.exe)
 Closed shell SCF:
 Using DIIS extrapolation, IDIIS=  1040.
 Overlap will be assumed to be unity.
 Two-electron integral symmetry not used.
 Keep J ints in memory in canonical form, NReq=888082.
 IVT=       79475 IEndB=       79475 NGot=    33554432 MDV=    33473473
 LenX=    33473473 LenY=    33472456
 Requested convergence on RMS density matrix=1.00D-08 within 128 cycles.
 Requested convergence on MAX density matrix=1.00D-06.
 Requested convergence on             energy=1.00D-06.
 No special actions if energy rises.
 FoFCou: FMM=F IPFlag=           0 FMFlag=           0 FMFlg1=           0
         NFxFlg=           0 DoJE=F BraDBF=F KetDBF=F FulRan=T
         wScrn=  0.000000 ICntrl=     600 IOpCl=  2 I1Cent=           0 NGrid=           0
         NMat0=    1 NMatS0=     54 NMatT0=    0 NMatD0=    1 NMtDS0=    0 NMtDT0=    0
 Symmetry not used in FoFCou.

 Cycle   1  Pass 1  IDiag  1:
 E=-0.924248396003577    
 DIIS: error= 1.34D-02 at cycle   1 NSaved=   1.
 NSaved= 1 IEnMin= 1 EnMin=-0.924248396003577     IErMin= 1 ErrMin= 1.34D-02
 ErrMax= 1.34D-02  0.00D+00 EMaxC= 1.00D-01 BMatC= 2.92D-03 BMatP= 2.92D-03
 IDIUse=3 WtCom= 8.66D-01 WtEn= 1.34D-01
 Coeff-Com:  0.100D+01
 Coeff-En:   0.100D+01
 Coeff:      0.100D+01
 GapD=    2.000 DampG=2.000 DampE=0.500 DampFc=1.0000 IDamp=-1.
 RMSDP=3.68D-03 MaxDP=2.49D-02              OVMax= 0.00D+00

 Cycle   2  Pass 1  IDiag  3:
 E=-0.932964391082351     Delta-E=       -0.008715995079 Rises=F Damp=F
 DIIS: error= 4.47D-03 at cycle   2 NSaved=   2.
 NSaved= 2 IEnMin= 2 EnMin=-0.932964391082351     IErMin= 2 ErrMin= 4.47D-03
 ErrMax= 4.47D-03  0.00D+00 EMaxC= 1.00D-01 BMatC= 3.56D-04 BMatP= 2.92D-03
 IDIUse=3 WtCom= 9.55D-01 WtEn= 4.47D-02
 Coeff-Com: -0.473D+00 0.147D+01
 Coeff-En:   0.000D+00 0.100D+01
 Coeff:     -0.452D+00 0.145D+01
 Gap=     0.418 Goal=   None    Shift=    0.000
 RMSDP=2.17D-03 MaxDP=1.26D-02 DE=-8.72D-03 OVMax= 1.54D-02

 Cycle   3  Pass 1  IDiag  3:
 E=-0.934483450416821     Delta-E=       -0.001519059334 Rises=F Damp=F
 DIIS: error= 4.61D-04 at cycle   3 NSaved=   3.
 NSaved= 3 IEnMin= 3 EnMin=-0.934483450416821     IErMin= 3 ErrMin= 4.61D-04
 ErrMax= 4.61D-04  0.00D+00 EMaxC= 1.00D-01 BMatC= 9.18D-06 BMatP= 3.56D-04
 IDIUse=3 WtCom= 9.95D-01 WtEn= 4.61D-03
 Coeff-Com:  0.190D+00-0.687D+00 0.150D+01
 Coeff-En:   0.000D+00 0.000D+00 0.100D+01
 Coeff:      0.189D+00-0.684D+00 0.150D+01
 Gap=     0.418 Goal=   None    Shift=    0.000
 RMSDP=4.91D-04 MaxDP=2.92D-03 DE=-1.52D-03 OVMax= 4.65D-03

 Cycle   4  Pass 1  IDiag  3:
 E=-0.934537884946181     Delta-E=       -0.000054434529 Rises=F Damp=F
 DIIS: error= 7.43D-05 at cycle   4 NSaved=   4.
 NSaved= 4 IEnMin= 4 EnMin=-0.934537884946181     IErMin= 4 ErrMin= 7.43D-05
 ErrMax= 7.43D-05  0.00D+00 EMaxC= 1.00D-01 BMatC= 3.38D-07 BMatP= 9.18D-06
 IDIUse=1 WtCom= 1.00D+00 WtEn= 0.00D+00
 Coeff-Com: -0.103D+00 0.377D+00-0.892D+00 0.162D+01
 Coeff:     -0.103D+00 0.377D+00-0.892D+00 0.162D+01
 Gap=     0.418 Goal=   None    Shift=    0.000
 RMSDP=9.91D-05 MaxDP=5.92D-04 DE=-5.44D-05 OVMax= 9.53D-04

 Cycle   5  Pass 1  IDiag  3:
 E=-0.934540253438598     Delta-E=       -0.000002368492 Rises=F Damp=F
 DIIS: error= 3.80D-05 at cycle   5 NSaved=   5.
 NSaved= 5 IEnMin= 5 EnMin=-0.934540253438598     IErMin= 5 ErrMin= 3.80D-05
 ErrMax= 3.80D-05  0.00D+00 EMaxC= 1.00D-01 BMatC= 5.09D-08 BMatP= 3.38D-07
 IDIUse=1 WtCom= 1.00D+00 WtEn= 0.00D+00
 Coeff-Com:  0.460D-01-0.169D+00 0.412D+00-0.995D+00 0.171D+01
 Coeff:      0.460D-01-0.169D+00 0.412D+00-0.995D+00 0.171D+01
 Gap=     0.418 Goal=   None    Shift=    0.000
 RMSDP=4.03D-05 MaxDP=2.93D-04 DE=-2.37D-06 OVMax= 2.01D-04

 Cycle   6  Pass 1  IDiag  3:
 E=-0.934540649819013     Delta-E=       -0.000000396380 Rises=F Damp=F
 DIIS: error= 1.79D-05 at cycle   6 NSaved=   6.
 NSaved= 6 IEnMin= 6 EnMin=-0.934540649819013     IErMin= 6 ErrMin= 1.79D-05
 ErrMax= 1.79D-05  0.00D+00 EMaxC= 1.00D-01 BMatC= 1.05D-08 BMatP= 5.09D-08
 IDIUse=1 WtCom= 1.00D+00 WtEn= 0.00D+00
 Coeff-Com: -0.119D-01 0.439D-01-0.112D+00 0.385D+00-0.122D+01 0.192D+01
 Coeff:     -0.119D-01 0.439D-01-0.112D+00 0.385D+00-0.122D+01 0.192D+01
 Gap=     0.418 Goal=   None    Shift=    0.000
 RMSDP=2.38D-05 MaxDP=1.88D-04 DE=-3.96D-07 OVMax= 1.35D-04

 Cycle   7  Pass 1  IDiag  3:
 E=-0.934540748269015     Delta-E=       -0.000000098450 Rises=F Damp=F
 DIIS: error= 5.35D-06 at cycle   7 NSaved=   7.
 NSaved= 7 IEnMin= 7 EnMin=-0.934540748269015     IErMin= 7 ErrMin= 5.35D-06
 ErrMax= 5.35D-06  0.00D+00 EMaxC= 1.00D-01 BMatC= 1.16D-09 BMatP= 1.05D-08
 IDIUse=1 WtCom= 1.00D+00 WtEn= 0.00D+00
 Coeff-Com:  0.879D-03-0.325D-02 0.106D-01-0.899D-01 0.473D+00-0.111D+01
 Coeff-Com:  0.172D+01
 Coeff:      0.879D-03-0.325D-02 0.106D-01-0.899D-01 0.473D+00-0.111D+01
 Coeff:      0.172D+01
 Gap=     0.418 Goal=   None    Shift=    0.000
 RMSDP=8.19D-06 MaxDP=6.37D-05 DE=-9.85D-08 OVMax= 6.16D-05

 Cycle   8  Pass 1  IDiag  3:
 E=-0.934540758804758     Delta-E=       -0.000000010536 Rises=F Damp=F
 DIIS: error= 2.24D-06 at cycle   8 NSaved=   8.
 NSaved= 8 IEnMin= 8 EnMin=-0.934540758804758     IErMin= 8 ErrMin= 2.24D-06
 ErrMax= 2.24D-06  0.00D+00 EMaxC= 1.00D-01 BMatC= 1.59D-10 BMatP= 1.16D-09
 IDIUse=1 WtCom= 1.00D+00 WtEn= 0.00D+00
 Coeff-Com:  0.883D-03-0.322D-02 0.550D-02 0.409D-01-0.332D+00 0.891D+00
 Coeff-Com: -0.165D+01 0.205D+01
 Coeff:      0.883D-03-0.322D-02 0.550D-02 0.409D-01-0.332D+00 0.891D+00
 Coeff:     -0.165D+01 0.205D+01
 Gap=     0.418 Goal=   None    Shift=    0.000
 RMSDP=2.75D-06 MaxDP=2.18D-05 DE=-1.05D-08 OVMax= 2.42D-05

 Cycle   9  Pass 1  IDiag  3:
 E=-0.934540760275425     Delta-E=       -0.000000001471 Rises=F Damp=F
 DIIS: error= 9.71D-07 at cycle   9 NSaved=   9.
 NSaved= 9 IEnMin= 9 EnMin=-0.934540760275425     IErMin= 9 ErrMin= 9.71D-07
 ErrMax= 9.71D-07  0.00D+00 EMaxC= 1.00D-01 BMatC= 2.96D-11 BMatP= 1.59D-10
 IDIUse=1 WtCom= 1.00D+00 WtEn= 0.00D+00
 Coeff-Com: -0.625D-03 0.227D-02-0.370D-02-0.325D-01 0.258D+00-0.693D+00
 Coeff-Com:  0.133D+01-0.212D+01 0.226D+01
 Coeff:     -0.625D-03 0.227D-02-0.370D-02-0.325D-01 0.258D+00-0.693D+00
 Coeff:      0.133D+01-0.212D+01 0.226D+01
 Gap=     0.418 Goal=   None    Shift=    0.000
 RMSDP=1.59D-06 MaxDP=1.32D-05 DE=-1.47D-09 OVMax= 1.15D-05

 Cycle  10  Pass 1  IDiag  3:
 E=-0.934540760577491     Delta-E=       -0.000000000302 Rises=F Damp=F
 DIIS: error= 1.02D-07 at cycle  10 NSaved=  10.
 NSaved=10 IEnMin=10 EnMin=-0.934540760577491     IErMin=10 ErrMin= 1.02D-07
 ErrMax= 1.02D-07  0.00D+00 EMaxC= 1.00D-01 BMatC= 8.18D-13 BMatP= 2.96D-11
 IDIUse=1 WtCom= 1.00D+00 WtEn= 0.00D+00
 Coeff-Com:  0.226D-03-0.826D-03 0.138D-02 0.113D-01-0.913D-01 0.246D+00
 Coeff-Com: -0.477D+00 0.784D+00-0.958D+00 0.148D+01
 Coeff:      0.226D-03-0.826D-03 0.138D-02 0.113D-01-0.913D-01 0.246D+00
 Coeff:     -0.477D+00 0.784D+00-0.958D+00 0.148D+01
 Gap=     0.418 Goal=   None    Shift=    0.000
 RMSDP=2.01D-07 MaxDP=1.49D-06 DE=-3.02D-10 OVMax= 1.09D-06

 Cycle  11  Pass 1  IDiag  3:
 E=-0.934540760583658     Delta-E=       -0.000000000006 Rises=F Damp=F
 DIIS: error= 3.14D-08 at cycle  11 NSaved=  11.
 NSaved=11 IEnMin=11 EnMin=-0.934540760583658     IErMin=11 ErrMin= 3.14D-08
 ErrMax= 3.14D-08  0.00D+00 EMaxC= 1.00D-01 BMatC= 4.02D-14 BMatP= 8.18D-13
 IDIUse=1 WtCom= 1.00D+00 WtEn= 0.00D+00
 Coeff-Com: -0.646D-04 0.235D-03-0.341D-03-0.460D-02 0.348D-01-0.926D-01
 Coeff-Com:  0.178D+00-0.294D+00 0.370D+00-0.725D+00 0.153D+01
 Coeff:     -0.646D-04 0.235D-03-0.341D-03-0.460D-02 0.348D-01-0.926D-01
 Coeff:      0.178D+00-0.294D+00 0.370D+00-0.725D+00 0.153D+01
 Gap=     0.418 Goal=   None    Shift=    0.000
 RMSDP=3.77D-08 MaxDP=2.08D-07 DE=-6.17D-12 OVMax= 3.54D-07

 Cycle  12  Pass 1  IDiag  3:
 E=-0.934540760583886     Delta-E=        0.000000000000 Rises=F Damp=F
 DIIS: error= 5.93D-09 at cycle  12 NSaved=  12.
 NSaved=12 IEnMin=12 EnMin=-0.934540760583886     IErMin=12 ErrMin= 5.93D-09
 ErrMax= 5.93D-09  0.00D+00 EMaxC= 1.00D-01 BMatC= 1.72D-15 BMatP= 4.02D-14
 IDIUse=1 WtCom= 1.00D+00 WtEn= 0.00D+00
 Coeff-Com:  0.117D-04-0.423D-04 0.401D-04 0.138D-02-0.984D-02 0.258D-01
 Coeff-Com: -0.495D-01 0.814D-01-0.103D+00 0.223D+00-0.623D+00 0.145D+01
 Coeff:      0.117D-04-0.423D-04 0.401D-04 0.138D-02-0.984D-02 0.258D-01
 Coeff:     -0.495D-01 0.814D-01-0.103D+00 0.223D+00-0.623D+00 0.145D+01
 Gap=     0.418 Goal=   None    Shift=    0.000
 RMSDP=7.83D-09 MaxDP=4.36D-08 DE=-2.27D-13 OVMax= 8.09D-08

 Cycle  13  Pass 2  IDiag  1:
 SCF Done:  E(RAM1) = -0.934540760584     A.U. after   13 cycles
            NFock= 12  Conv=0.78D-08     -V/T= 0.9370
 KE=-1.482587459431D+01 PE=-1.555901142063D+02 EE= 7.798419972351D+01
 Leave Link  502 at Thu Mar 24 15:41:40 2016, MaxMem=    33554432 cpu:         0.0
 (Enter /opt/g09/g09/l701.exe)
 Compute integral first derivatives.
 ... and contract with generalized density number  0.
 Leave Link  701 at Thu Mar 24 15:41:40 2016, MaxMem=    33554432 cpu:         0.0
 (Enter /opt/g09/g09/l702.exe)
 L702 exits ... SP integral derivatives will be done elsewhere.
 Leave Link  702 at Thu Mar 24 15:41:40 2016, MaxMem=    33554432 cpu:         0.0
 (Enter /opt/g09/g09/l703.exe)
 Compute integral first derivatives, UseDBF=F ICtDFT=           0.
 Integral derivatives from FoFJK, PRISM(SPDF).
 Calling FoFJK, ICntrl=      2127 FMM=F ISym2X=0 I1Cent= 0 IOpClX= 0 NMat=1 NMatS=1 NMatT=0.
 FoFJK:  IHMeth= 8 ICntrl=    2127 DoSepK=F KAlg= 0 I1Cent=   0 FoldK=F
 IRaf=         0 NMat=   1 IRICut=       1 DoRegI=T DoRafI=F ISym2E= 0.
 FoFCou: FMM=F IPFlag=           0 FMFlag=      100000 FMFlg1=         800
         NFxFlg=           0 DoJE=F BraDBF=F KetDBF=F FulRan=T
         wScrn=  0.000000 ICntrl=    2127 IOpCl=  0 I1Cent=           0 NGrid=           0
         NMat0=    1 NMatS0=      1 NMatT0=    0 NMatD0=    1 NMtDS0=    0 NMtDT0=    0
 Symmetry not used in FoFCou.
 Leave Link  703 at Thu Mar 24 15:41:40 2016, MaxMem=    33554432 cpu:         0.0
 (Enter /opt/g09/g09/l716.exe)
 Dipole        =-5.24229142D-01 5.71733238D-03-9.33882105D-03
 ***** Axes restored to original set *****
 -------------------------------------------------------------------
 Center     Atomic                   Forces (Hartrees/Bohr)
 Number     Number              X              Y              Z
 -------------------------------------------------------------------
      1        6           0.008166145    0.000844723    0.008620106
      2        6          -0.003178993   -0.009374967   -0.010003681
      3        6           0.007743614    0.002428997   -0.002211749
      4        6          -0.009749869    0.000798815   -0.005434705
      5        1           0.001323996    0.000281229    0.000097039
      6        1          -0.000461883   -0.001908029    0.000778021
      7        1           0.000183818    0.001590137   -0.000319242
      8        1          -0.003712955    0.002884701    0.002047190
      9       16          -0.000313872    0.002454394    0.006427021
 -------------------------------------------------------------------
 Cartesian Forces:  Max     0.010003681 RMS     0.004786004
 Leave Link  716 at Thu Mar 24 15:41:40 2016, MaxMem=    33554432 cpu:         0.0
 (Enter /opt/g09/g09/l103.exe)

 GradGradGradGradGradGradGradGradGradGradGradGradGradGradGradGradGradGrad
 Berny optimization.
[...]
  10        1PX        -0.15773   0.00003  -0.00004  -0.00010   0.31993
  11        1PY        -0.22047   0.00060   0.00006   0.00025   0.25239
  12        1PZ         0.00065   0.59050   0.02842   0.55369   0.00026
  13 4   C  1S          0.08213  -0.00001  -0.00005  -0.00001  -0.02571
  14        1PX         0.17720  -0.00010   0.00006   0.00007   0.09189
  15        1PY         0.30016  -0.00041  -0.00003  -0.00001  -0.02687
  16        1PZ         0.00033   0.38892  -0.36989  -0.36287  -0.00023
  17 5   H  1S         -0.24439   0.00023   0.00000   0.00004   0.20312
  18 6   H  1S          0.13933  -0.00025  -0.00003   0.00020  -0.07842
  19 7   H  1S          0.13981  -0.00008  -0.00002   0.00004  -0.07816
  20 8   H  1S         -0.24432   0.00026   0.00007  -0.00004   0.20317
  21 9   S  1S          0.20391  -0.00012  -0.00001   0.00005  -0.28323
  22        1PX         0.62807  -0.00063  -0.00011  -0.00011   0.62383
  23        1PY        -0.00025  -0.00016   0.00003   0.00003   0.00029
  24        1PZ         0.00010   0.00089   0.85162  -0.35234  -0.00003
                          16        17        18        19        20
                           V         V         V         V         V
     Eigenvalues --     0.25933   0.26489   0.34139   0.34385   0.36642
   1 1   C  1S          0.00392  -0.00016  -0.10796   0.29324  -0.26335
   2        1PX        -0.01343   0.00012   0.21062  -0.06807   0.25876
   3        1PY         0.11520  -0.00001  -0.04671  -0.08413  -0.14463
   4        1PZ        -0.00023   0.59051  -0.00022   0.00015  -0.00009
   5 2   C  1S         -0.26525  -0.00024  -0.29018  -0.23598  -0.11019
   6        1PX        -0.30858  -0.00032  -0.07943   0.00613  -0.21353
   7        1PY         0.29558   0.00030  -0.21373  -0.28736  -0.13499
   8        1PZ         0.00017  -0.38942   0.00006  -0.00010   0.00002
   9 3   C  1S          0.26545  -0.00017  -0.29207   0.23348   0.10963
  10        1PX         0.30853  -0.00004  -0.07936  -0.00709   0.21349
  11        1PY         0.29539   0.00032   0.21652  -0.28564  -0.13496
  12        1PZ        -0.00026   0.38897  -0.00041   0.00033   0.00017
  13 4   C  1S         -0.00384  -0.00001  -0.10582  -0.29419   0.26338
  14        1PX         0.01333   0.00010   0.21031   0.06979  -0.25830
  15        1PY         0.11528   0.00015   0.04776  -0.08374  -0.14470
  16        1PZ         0.00035  -0.59021   0.00031  -0.00016  -0.00011
  17 5   H  1S          0.17000   0.00015   0.29873   0.22302  -0.43967
  18 6   H  1S          0.02419   0.00038   0.46486  -0.46211  -0.25024
  19 7   H  1S         -0.02453   0.00004   0.46064   0.46602   0.25073
  20 8   H  1S         -0.17024   0.00006   0.29994  -0.22057   0.44000
  21 9   S  1S          0.00001   0.00011   0.02688   0.00018   0.00007
  22        1PX        -0.00019  -0.00022  -0.03477  -0.00026  -0.00019
  23        1PY         0.63884   0.00029  -0.00001   0.01751   0.14689
  24        1PZ         0.00004   0.00011   0.00005  -0.00004  -0.00002
                          21        22        23        24
                           V         V         V         V
     Eigenvalues --     0.37206   0.43745   0.44870   0.47698
   1 1   C  1S         -0.22930  -0.19071   0.30687   0.32486
   2        1PX         0.19760   0.16432   0.33723   0.42131
   3        1PY        -0.25875   0.59113   0.14750  -0.11279
   4        1PZ        -0.00016   0.00003   0.00000  -0.00003
   5 2   C  1S          0.10088  -0.16474  -0.28053  -0.22518
   6        1PX        -0.09216   0.19618   0.34922   0.28732
   7        1PY         0.27305  -0.10040   0.23458   0.22708
   8        1PZ         0.00008   0.00000   0.00001   0.00001
   9 3   C  1S          0.10088   0.16470  -0.28100   0.22450
  10        1PX        -0.09230  -0.19619   0.34978  -0.28653
  11        1PY        -0.27306  -0.10034  -0.23509   0.22654
  12        1PZ         0.00011   0.00004   0.00004  -0.00003
  13 4   C  1S         -0.22923   0.19080   0.30742  -0.32410
  14        1PX         0.19755  -0.16450   0.33842  -0.42052
  15        1PY         0.25893   0.59105  -0.14710  -0.11314
  16        1PZ         0.00006  -0.00001  -0.00002   0.00001
  17 5   H  1S          0.41097   0.03263   0.01926  -0.11357
  18 6   H  1S         -0.26655  -0.08966  -0.09172   0.08645
  19 7   H  1S         -0.26653   0.08968  -0.09160  -0.08669
  20 8   H  1S          0.41096  -0.03276   0.01873   0.11361
  21 9   S  1S          0.06551  -0.00001   0.01853   0.00001
  22        1PX        -0.11029   0.00004  -0.09776  -0.00009
  23        1PY        -0.00008  -0.06910  -0.00006  -0.01109
  24        1PZ        -0.00003  -0.00001   0.00000   0.00000
     Density Matrix:
                           1         2         3         4         5
   1 1   C  1S          1.08734
   2        1PX        -0.10090   1.03631
   3        1PY         0.05312  -0.01522   1.00993
   4        1PZ        -0.00003   0.00001   0.00000   1.03997
   5 2   C  1S          0.33221   0.49558   0.23036   0.00000   1.13787
   6        1PX        -0.48282  -0.42797  -0.33206   0.00001   0.02355
   7        1PY        -0.16858  -0.24933   0.08011  -0.00007   0.11658
   8        1PZ        -0.00005   0.00011  -0.00013   0.86101   0.00003
   9 3   C  1S          0.00188  -0.02610  -0.03743   0.00002  -0.00098
  10        1PX        -0.03220  -0.02207  -0.01874   0.00001   0.05145
  11        1PY        -0.01258   0.00986  -0.05070  -0.00002   0.00659
  12        1PZ         0.00000   0.00000   0.00000  -0.05811   0.00001
  13 4   C  1S          0.27668  -0.03352  -0.48894  -0.00001   0.00190
  14        1PX        -0.03358   0.14013   0.05069  -0.00001  -0.02608
  15        1PY         0.48891  -0.05062  -0.62352  -0.00006   0.03748
  16        1PZ        -0.00006   0.00003   0.00001   0.43406  -0.00002
  17 5   H  1S         -0.02589   0.00887   0.03099  -0.00001   0.07620
  18 6   H  1S          0.07907   0.00966  -0.09346  -0.00005   0.05321
  19 7   H  1S         -0.02109  -0.03595  -0.03266   0.00000   0.55442
  20 8   H  1S          0.52830  -0.68600   0.41802   0.00019  -0.03865
  21 9   S  1S          0.00986   0.00233   0.04620  -0.00001   0.12892
  22        1PX         0.03406   0.00963  -0.06507   0.00000  -0.30863
  23        1PY         0.04296  -0.02439  -0.02260   0.00000   0.35164
  24        1PZ         0.00001  -0.00005   0.00006  -0.25549  -0.00003
                           6         7         8         9        10
   6        1PX         0.99807
   7        1PY         0.05133   1.02225
   8        1PZ         0.00000  -0.00003   1.08412
   9 3   C  1S          0.05143  -0.00655   0.00005   1.13799
  10        1PX         0.04471  -0.02410   0.00005   0.02362   0.99815
  11        1PY         0.02416  -0.01881  -0.00013  -0.11657  -0.05131
  12        1PZ        -0.00001   0.00002  -0.30992  -0.00009   0.00000
  13 4   C  1S         -0.03223   0.01254  -0.00001   0.33209  -0.48284
  14        1PX        -0.02208  -0.00989  -0.00002   0.49547  -0.42817
  15        1PY         0.01873  -0.05081   0.00004  -0.23026   0.33202
  16        1PZ        -0.00002   0.00003  -0.05803  -0.00016  -0.00007
  17 5   H  1S         -0.05331  -0.03606   0.00001  -0.03866   0.01355
  18 6   H  1S          0.03818  -0.05702  -0.00005   0.55446   0.23865
  19 7   H  1S          0.23889   0.75336   0.00007   0.05325   0.03819
  20 8   H  1S          0.01345   0.03213   0.00003   0.07619  -0.05334
  21 9   S  1S          0.18463  -0.17594  -0.00003   0.12895   0.18459
  22        1PX        -0.35682   0.40632   0.00008  -0.30854  -0.35650
  23        1PY         0.49012  -0.33657  -0.00003  -0.35194  -0.49031
  24        1PZ         0.00000   0.00000   0.39008  -0.00007  -0.00007
                          11        12        13        14        15
  11        1PY         1.02229
  12        1PZ         0.00002   1.08425
  13 4   C  1S          0.16859   0.00005   1.08742
  14        1PX         0.24934  -0.00006  -0.10086   1.03621
  15        1PY         0.07998   0.00000  -0.05317   0.01527   1.00986
  16        1PZ         0.00023   0.86099   0.00005   0.00003  -0.00004
  17 5   H  1S         -0.03210  -0.00003   0.52830  -0.68596  -0.41814
  18 6   H  1S         -0.75340   0.00038  -0.02110  -0.03593   0.03258
  19 7   H  1S          0.05702  -0.00001   0.07911   0.00965   0.09351
  20 8   H  1S          0.03608  -0.00004  -0.02590   0.00885  -0.03096
  21 9   S  1S          0.17593   0.00001   0.00984   0.00234  -0.04620
  22        1PX        -0.40607  -0.00003   0.03413   0.00960   0.06508
  23        1PY        -0.33681   0.00001  -0.04298   0.02437  -0.02263
  24        1PZ         0.00010   0.39009  -0.00002   0.00004  -0.00001
                          16        17        18        19        20
  16        1PZ         1.03996
  17 5   H  1S         -0.00008   0.82866
  18 6   H  1S          0.00008  -0.01991   0.81207
  19 7   H  1S          0.00001  -0.02544  -0.01097   0.81215
  20 8   H  1S          0.00004  -0.02912  -0.02541  -0.01991   0.82860
  21 9   S  1S          0.00001   0.04443  -0.03089  -0.03092   0.04444
  22        1PX        -0.00002  -0.13824   0.05313   0.05316  -0.13831
  23        1PY        -0.00004  -0.09391   0.04833  -0.04817   0.09392
  24        1PZ        -0.25558   0.00001   0.00003   0.00000  -0.00001
                          21        22        23        24
  21 9   S  1S          1.82884
  22        1PX         0.37332   1.17581
  23        1PY         0.00013  -0.00008   1.13020
  24        1PZ         0.00002  -0.00005  -0.00002   1.75171
    Full Mulliken population analysis:
                           1         2         3         4         5
   1 1   C  1S          1.08734
   2        1PX         0.00000   1.03631
   3        1PY         0.00000   0.00000   1.00993
   4        1PZ         0.00000   0.00000   0.00000   1.03997
   5 2   C  1S          0.00000   0.00000   0.00000   0.00000   1.13787
   6        1PX         0.00000   0.00000   0.00000   0.00000   0.00000
   7        1PY         0.00000   0.00000   0.00000   0.00000   0.00000
   8        1PZ         0.00000   0.00000   0.00000   0.00000   0.00000
   9 3   C  1S          0.00000   0.00000   0.00000   0.00000   0.00000
  10        1PX         0.00000   0.00000   0.00000   0.00000   0.00000
  11        1PY         0.00000   0.00000   0.00000   0.00000   0.00000
  12        1PZ         0.00000   0.00000   0.00000   0.00000   0.00000
  13 4   C  1S          0.00000   0.00000   0.00000   0.00000   0.00000
  14        1PX         0.00000   0.00000   0.00000   0.00000   0.00000
  15        1PY         0.00000   0.00000   0.00000   0.00000   0.00000
  16        1PZ         0.00000   0.00000   0.00000   0.00000   0.00000
  17 5   H  1S          0.00000   0.00000   0.00000   0.00000   0.00000
  18 6   H  1S          0.00000   0.00000   0.00000   0.00000   0.00000
  19 7   H  1S          0.00000   0.00000   0.00000   0.00000   0.00000
  20 8   H  1S          0.00000   0.00000   0.00000   0.00000   0.00000
  21 9   S  1S          0.00000   0.00000   0.00000   0.00000   0.00000
  22        1PX         0.00000   0.00000   0.00000   0.00000   0.00000
  23        1PY         0.00000   0.00000   0.00000   0.00000   0.00000
  24        1PZ         0.00000   0.00000   0.00000   0.00000   0.00000
                           6         7         8         9        10
   6        1PX         0.99807
   7        1PY         0.00000   1.02225
   8        1PZ         0.00000   0.00000   1.08412
   9 3   C  1S          0.00000   0.00000   0.00000   1.13799
  10        1PX         0.00000   0.00000   0.00000   0.00000   0.99815
  11        1PY         0.00000   0.00000   0.00000   0.00000   0.00000
  12        1PZ         0.00000   0.00000   0.00000   0.00000   0.00000
  13 4   C  1S          0.00000   0.00000   0.00000   0.00000   0.00000
  14        1PX         0.00000   0.00000   0.00000   0.00000   0.00000
  15        1PY         0.00000   0.00000   0.00000   0.00000   0.00000
  16        1PZ         0.00000   0.00000   0.00000   0.00000   0.00000
  17 5   H  1S          0.00000   0.00000   0.00000   0.00000   0.00000
  18 6   H  1S          0.00000   0.00000   0.00000   0.00000   0.00000
  19 7   H  1S          0.00000   0.00000   0.00000   0.00000   0.00000
  20 8   H  1S          0.00000   0.00000   0.00000   0.00000   0.00000
  21 9   S  1S          0.00000   0.00000   0.00000   0.00000   0.00000
  22        1PX         0.00000   0.00000   0.00000   0.00000   0.00000
  23        1PY         0.00000   0.00000   0.00000   0.00000   0.00000
  24        1PZ         0.00000   0.00000   0.00000   0.00000   0.00000
                          11        12        13        14        15
  11        1PY         1.02229
  12        1PZ         0.00000   1.08425
  13 4   C  1S          0.00000   0.00000   1.08742
  14        1PX         0.00000   0.00000   0.00000   1.03621
  15        1PY         0.00000   0.00000   0.00000   0.00000   1.00986
  16        1PZ         0.00000   0.00000   0.00000   0.00000   0.00000
  17 5   H  1S          0.00000   0.00000   0.00000   0.00000   0.00000
  18 6   H  1S          0.00000   0.00000   0.00000   0.00000   0.00000
  19 7   H  1S          0.00000   0.00000   0.00000   0.00000   0.00000
  20 8   H  1S          0.00000   0.00000   0.00000   0.00000   0.00000
  21 9   S  1S          0.00000   0.00000   0.00000   0.00000   0.00000
  22        1PX         0.00000   0.00000   0.00000   0.00000   0.00000
  23        1PY         0.00000   0.00000   0.00000   0.00000   0.00000
  24        1PZ         0.00000   0.00000   0.00000   0.00000   0.00000
                          16        17        18        19        20
  16        1PZ         1.03996
  17 5   H  1S          0.00000   0.82866
  18 6   H  1S          0.00000   0.00000   0.81207
  19 7   H  1S          0.00000   0.00000   0.00000   0.81215
  20 8   H  1S          0.00000   0.00000   0.00000   0.00000   0.82860
  21 9   S  1S          0.00000   0.00000   0.00000   0.00000   0.00000
  22        1PX         0.00000   0.00000   0.00000   0.00000   0.00000
  23        1PY         0.00000   0.00000   0.00000   0.00000   0.00000
  24        1PZ         0.00000   0.00000   0.00000   0.00000   0.00000
                          21        22        23        24
  21 9   S  1S          1.82884
  22        1PX         0.00000   1.17581
  23        1PY         0.00000   0.00000   1.13020
  24        1PZ         0.00000   0.00000   0.00000   1.75171
     Gross orbital populations:
                           1
   1 1   C  1S          1.08734
   2        1PX         1.03631
   3        1PY         1.00993
   4        1PZ         1.03997
   5 2   C  1S          1.13787
   6        1PX         0.99807
   7        1PY         1.02225
   8        1PZ         1.08412
   9 3   C  1S          1.13799
  10        1PX         0.99815
  11        1PY         1.02229
  12        1PZ         1.08425
  13 4   C  1S          1.08742
  14        1PX         1.03621
  15        1PY         1.00986
  16        1PZ         1.03996
  17 5   H  1S          0.82866
  18 6   H  1S          0.81207
  19 7   H  1S          0.81215
  20 8   H  1S          0.82860
  21 9   S  1S          1.82884
  22        1PX         1.17581
  23        1PY         1.13020
  24        1PZ         1.75171
          Condensed to atoms (all electrons):
               1          2          3          4          5          6
     1  C    4.173547   0.000000   0.000000   0.000000   0.000000   0.000000
     2  C    0.000000   4.242300   0.000000   0.000000   0.000000   0.000000
     3  C    0.000000   0.000000   4.242664   0.000000   0.000000   0.000000
     4  C    0.000000   0.000000   0.000000   4.173446   0.000000   0.000000
     5  H    0.000000   0.000000   0.000000   0.000000   0.828657   0.000000
     6  H    0.000000   0.000000   0.000000   0.000000   0.000000   0.812075
     7  H    0.000000   0.000000   0.000000   0.000000   0.000000   0.000000
     8  H    0.000000   0.000000   0.000000   0.000000   0.000000   0.000000
     9  S    0.000000   0.000000   0.000000   0.000000   0.000000   0.000000
               7          8          9
     1  C    0.000000   0.000000   0.000000
     2  C    0.000000   0.000000   0.000000
     3  C    0.000000   0.000000   0.000000
     4  C    0.000000   0.000000   0.000000
     5  H    0.000000   0.000000   0.000000
     6  H    0.000000   0.000000   0.000000
     7  H    0.812149   0.000000   0.000000
     8  H    0.000000   0.828600   0.000000
     9  S    0.000000   0.000000   5.886563
 Mulliken charges:
               1
     1  C   -0.173547
     2  C   -0.242300
     3  C   -0.242664
     4  C   -0.173446
     5  H    0.171343
     6  H    0.187925
     7  H    0.187851
     8  H    0.171400
     9  S    0.113437
 Sum of Mulliken charges =   0.00000
 Mulliken charges with hydrogens summed into heavy atoms:
               1
     1  C   -0.002147
     2  C   -0.054449
     3  C   -0.054739
     4  C   -0.002102
     9  S    0.113437
 Charge=              0.0000 electrons
 Dipole moment (field-independent basis, Debye):
    X=             -1.3761    Y=              0.0008    Z=              0.0011  Tot=              1.3761
 N-N= 9.147836898495D+01 E-N=-1.555447335569D+02  KE=-1.482720952840D+01
 Orbital energies and kinetic energies (alpha):
                                 1                 2
   1         O                -1.251922         -1.277638
   2         O                -0.968765         -0.997320
   3         O                -0.833077         -0.836108
   4         O                -0.650383         -0.668985
   5         O                -0.648280         -0.634906
   6         O                -0.544254         -0.525123
   7         O                -0.505168         -0.501166
   8         O                -0.360343         -0.362787
   9         O                -0.357237         -0.400768
  10         O                -0.335937         -0.357982
  11         O                -0.280933         -0.307858
  12         O                -0.259274         -0.296279
  13         O                -0.232526         -0.246686
  14         V                 0.185394         -0.123354
  15         V                 0.244431         -0.126098
  16         V                 0.259335         -0.092055
  17         V                 0.264887         -0.084383
  18         V                 0.341387         -0.188372
  19         V                 0.343847         -0.188214
  20         V                 0.366419         -0.147610
  21         V                 0.372059         -0.134679
  22         V                 0.437449         -0.000114
  23         V                 0.448703         -0.029868
  24         V                 0.476982         -0.020713
 Total kinetic energy from orbitals=-1.482720952840D+01
 Leave Link  601 at Thu Mar 24 15:41:41 2016, MaxMem=    33554432 cpu:         0.0
 (Enter /opt/g09/g09/l9999.exe)
 1\1\GINC-LINUX-CBNE\SP\RAM1-Full\STO-3G\C4H4S1\DUSTIN\24-Mar-2016\0\\#
 P AM1(Input,Print) CIS(Singlets,NStates=10) pop(full) Geom=Checkpoint\
 \best1\\0,1\C,0,0.8927358196,-0.700761904,-0.0259625968\C,0,-0.3428300
 072,-1.2360865624,-0.0032099988\C,0,-0.342859418,1.2919124595,0.036033
 8622\C,0,0.8928627415,0.7569587282,-0.0033263436\H,0,1.8153028431,1.32
 50913847,-0.0179029963\H,0,-0.6628387931,2.318267389,0.0608562116\H,0,
 -0.6638466429,-2.2622401543,-0.0109821252\H,0,1.8149058777,-1.26854329
 86,-0.0575667836\S,0,-1.6245094207,0.0273769579,0.0486327707\\Version=
 ES64L-G09RevD.01\State=1-A\HF=-0.9357023\RMSD=3.506e-09\PG=C01 [X(C4H4
 S1)]\\@


 A SLIP OF THE FOOT YOU MAY SOON RECOVER, BUT A SLIP OF THE TONGUE
 YOU MAY NEVER GET OVER. -- BEN FRANKLIN
 Job cpu time:       0 days  0 hours  0 minutes  0.2 seconds.
 File lengths (MBytes):  RWF=      6 Int=      0 D2E=      0 Chk=      3 Scr=      1
 Normal termination of Gaussian 09 at Thu Mar 24 15:41:41 2016.
