 Entering Gaussian System, Link 0=g09
 Input=Thiophene_best_1.com
 Output=Thiophene_best_1_opt.log
 Initial command:
 /opt/g09/g09/l1.exe "/opt/g09/scratch/Gau-25060.inp" -scrdir="/opt/g09/scratch/"
 Entering Link 1 = /opt/g09/g09/l1.exe PID=     25061.
  
 Copyright (c) 1988,1990,1992,1993,1995,1998,2003,2009,2013,
            Gaussian, Inc.  All Rights Reserved.
  
 This is part of the Gaussian(R) 09 program.  It is based on
 the Gaussian(R) 03 system (copyright 2003, Gaussian, Inc.),
 the Gaussian(R) 98 system (copyright 1998, Gaussian, Inc.),
 the Gaussian(R) 94 system (copyright 1995, Gaussian, Inc.),
 the Gaussian 92(TM) system (copyright 1992, Gaussian, Inc.),
 the Gaussian 90(TM) system (copyright 1990, Gaussian, Inc.),
 the Gaussian 88(TM) system (copyright 1988, Gaussian, Inc.),
 the Gaussian 86(TM) system (copyright 1986, Carnegie Mellon
 University), and the Gaussian 82(TM) system (copyright 1983,
 Carnegie Mellon University). Gaussian is a federally registered
 trademark of Gaussian, Inc.
  
 This software contains proprietary and confidential information,
 including trade secrets, belonging to Gaussian, Inc.
  
 This software is provided under written license and may be
 used, copied, transmitted, or stored only in accord with that
 written license.
  
 The following legend is applicable only to US Government
 contracts under FAR:
  
                    RESTRICTED RIGHTS LEGEND
  
 Use, reproduction and disclosure by the US Government is
 subject to restrictions as set forth in subparagraphs (a)
 and (c) of the Commercial Computer Software - Restricted
 Rights clause in FAR 52.227-19.
  
 Gaussian, Inc.
 340 Quinnipiac St., Bldg. 40, Wallingford CT 06492
  
  
 ---------------------------------------------------------------
 Warning -- This program may not be used in any manner that
 competes with the business of Gaussian, Inc. or will provide
 assistance to any competitor of Gaussian, Inc.  The licensee
 of this program is prohibited from giving any competitor of
 Gaussian, Inc. access to this program.  By using this program,
 the user acknowledges that Gaussian, Inc. is engaged in the
 business of creating and licensing software in the field of
 computational chemistry and represents and warrants to the
 licensee that it is not a competitor of Gaussian, Inc. and that
 it will not use this program in any manner prohibited above.
 ---------------------------------------------------------------
  

 Cite this work as:
 Gaussian 09, Revision D.01,
 M. J. Frisch, G. W. Trucks, H. B. Schlegel, G. E. Scuseria, 
 M. A. Robb, J. R. Cheeseman, G. Scalmani, V. Barone, B. Mennucci, 
 G. A. Petersson, H. Nakatsuji, M. Caricato, X. Li, H. P. Hratchian, 
 A. F. Izmaylov, J. Bloino, G. Zheng, J. L. Sonnenberg, M. Hada, 
 M. Ehara, K. Toyota, R. Fukuda, J. Hasegawa, M. Ishida, T. Nakajima, 
 Y. Honda, O. Kitao, H. Nakai, T. Vreven, J. A. Montgomery, Jr., 
 J. E. Peralta, F. Ogliaro, M. Bearpark, J. J. Heyd, E. Brothers, 
 K. N. Kudin, V. N. Staroverov, T. Keith, R. Kobayashi, J. Normand, 
 K. Raghavachari, A. Rendell, J. C. Burant, S. S. Iyengar, J. Tomasi, 
 M. Cossi, N. Rega, J. M. Millam, M. Klene, J. E. Knox, J. B. Cross, 
 V. Bakken, C. Adamo, J. Jaramillo, R. Gomperts, R. E. Stratmann, 
 O. Yazyev, A. J. Austin, R. Cammi, C. Pomelli, J. W. Ochterski, 
 R. L. Martin, K. Morokuma, V. G. Zakrzewski, G. A. Voth, 
 P. Salvador, J. J. Dannenberg, S. Dapprich, A. D. Daniels, 
 O. Farkas, J. B. Foresman, J. V. Ortiz, J. Cioslowski, 
 and D. J. Fox, Gaussian, Inc., Wallingford CT, 2013.
 
 ******************************************
 Gaussian 09:  ES64L-G09RevD.01 24-Apr-2013
                25-Mar-2016 
 ******************************************
 %Chk=freq
 -----------------------
 #P AM1(Input,Print) opt
 -----------------------
 1/14=-1,18=20,19=15,26=1,38=1/1,3;
 2/9=110,12=2,17=6,18=5,40=1/2;
 3/5=2,16=1,25=1,41=700000,71=1,135=100,136=1/1,2,3;
 4/35=1/1;
 5/5=2,35=1,38=5/2;
 6/7=2,8=2,9=2,10=2,28=1/1;
 7//1,2,3,16;
 1/14=-1,18=20,19=15,26=1/3(2);
 2/9=110/2;
 99//99;
 2/9=110/2;
 3/5=2,16=1,25=1,41=700000,71=1,135=20,136=1/1,2,3;
 4/5=5,16=3,35=1/1;
 5/5=2,35=1,38=5/2;
 7//1,2,3,16;
 1/14=-1,18=20,19=15,26=1/3(-5);
 2/9=110/2;
 6/7=2,8=2,9=2,10=2,19=2,28=1/1;
 99/9=1/99;
 Leave Link    1 at Fri Mar 25 08:56:39 2016, MaxMem=           0 cpu:         0.0
 (Enter /opt/g09/g09/l101.exe)
 ----
 best
 ----
 Symbolic Z-matrix:
 Charge =  0 Multiplicity = 1
 6                     0.8684   -0.68866   0.01581 
 6                    -0.36354  -1.29398  -0.0265 
 6                    -0.35129   1.28484   0.09378 
 6                     0.86821   0.74417  -0.06483 
 1                     1.77651   1.35109  -0.0205 
 1                    -0.57033   2.32634   0.15403 
 1                    -0.63025  -2.2947    0.13042 
 1                     1.78071  -1.22059  -0.11839 
 16                   -1.59949   0.04348  -0.13725 
 
 NAtoms=      9 NQM=        9 NQMF=       0 NMMI=      0 NMMIF=      0
                NMic=       0 NMicF=      0.
                    Isotopes and Nuclear Properties:
 (Nuclear quadrupole moments (NQMom) in fm**2, nuclear magnetic moments (NMagM)
  in nuclear magnetons)

  Atom         1           2           3           4           5           6           7           8           9
 IAtWgt=          12          12          12          12           1           1           1           1          32
 AtmWgt=  12.0000000  12.0000000  12.0000000  12.0000000   1.0078250   1.0078250   1.0078250   1.0078250  31.9720718
 NucSpn=           0           0           0           0           1           1           1           1           0
 AtZEff=   0.0000000   0.0000000   0.0000000   0.0000000   0.0000000   0.0000000   0.0000000   0.0000000   0.0000000
 NQMom=    0.0000000   0.0000000   0.0000000   0.0000000   0.0000000   0.0000000   0.0000000   0.0000000   0.0000000
 NMagM=    0.0000000   0.0000000   0.0000000   0.0000000   2.7928460   2.7928460   2.7928460   2.7928460   0.0000000
 AtZNuc=   6.0000000   6.0000000   6.0000000   6.0000000   1.0000000   1.0000000   1.0000000   1.0000000  16.0000000
 Leave Link  101 at Fri Mar 25 08:56:39 2016, MaxMem=    33554432 cpu:         0.0
 (Enter /opt/g09/g09/l103.exe)

 GradGradGradGradGradGradGradGradGradGradGradGradGradGradGradGradGradGrad
 Berny optimization.
 Initialization pass.
                           ----------------------------
                           !    Initial Parameters    !
                           ! (Angstroms and Degrees)  !
 --------------------------                            --------------------------
 ! Name  Definition              Value          Derivative Info.                !
 --------------------------------------------------------------------------------
 ! R1    R(1,2)                  1.3733         estimate D2E/DX2                !
 ! R2    R(1,4)                  1.4351         estimate D2E/DX2                !
 ! R3    R(1,8)                  1.0646         estimate D2E/DX2                !
 ! R4    R(2,7)                  1.0475         estimate D2E/DX2                !
 ! R5    R(2,9)                  1.8244         estimate D2E/DX2                !
 ! R6    R(3,4)                  1.3434         estimate D2E/DX2                !
 ! R7    R(3,6)                  1.066          estimate D2E/DX2                !
 ! R8    R(3,9)                  1.7755         estimate D2E/DX2                !
 ! R9    R(4,5)                  1.0933         estimate D2E/DX2                !
 ! A1    A(2,1,4)              115.9915         estimate D2E/DX2                !
 ! A2    A(2,1,8)              123.0015         estimate D2E/DX2                !
 ! A3    A(4,1,8)              119.4666         estimate D2E/DX2                !
 ! A4    A(1,2,7)              130.1589         estimate D2E/DX2                !
 ! A5    A(1,2,9)              106.6459         estimate D2E/DX2                !
 ! A6    A(7,2,9)              122.4771         estimate D2E/DX2                !
 ! A7    A(4,3,6)              125.9042         estimate D2E/DX2                !
 ! A8    A(4,3,9)              109.9639         estimate D2E/DX2                !
 ! A9    A(6,3,9)              123.0934         estimate D2E/DX2                !
 ! A10   A(1,4,3)              113.2862         estimate D2E/DX2                !
 ! A11   A(1,4,5)              123.4945         estimate D2E/DX2                !
 ! A12   A(3,4,5)              121.7329         estimate D2E/DX2                !
 ! A13   A(2,9,3)               91.6273         estimate D2E/DX2                !
 ! D1    D(4,1,2,7)           -171.6147         estimate D2E/DX2                !
 ! D2    D(4,1,2,9)             -1.3437         estimate D2E/DX2                !
 ! D3    D(8,1,2,7)             22.6454         estimate D2E/DX2                !
 ! D4    D(8,1,2,9)           -167.0836         estimate D2E/DX2                !
 ! D5    D(2,1,4,3)             12.34           estimate D2E/DX2                !
 ! D6    D(2,1,4,5)            178.6114         estimate D2E/DX2                !
 ! D7    D(8,1,4,3)            178.6143         estimate D2E/DX2                !
 ! D8    D(8,1,4,5)            -15.1144         estimate D2E/DX2                !
 ! D9    D(1,2,9,3)             -6.7892         estimate D2E/DX2                !
 ! D10   D(7,2,9,3)            164.4046         estimate D2E/DX2                !
 ! D11   D(6,3,4,1)            174.4311         estimate D2E/DX2                !
 ! D12   D(6,3,4,5)              7.8872         estimate D2E/DX2                !
 ! D13   D(9,3,4,1)            -16.997          estimate D2E/DX2                !
 ! D14   D(9,3,4,5)            176.4591         estimate D2E/DX2                !
 ! D15   D(4,3,9,2)             13.7672         estimate D2E/DX2                !
 ! D16   D(6,3,9,2)           -177.2771         estimate D2E/DX2                !
 --------------------------------------------------------------------------------
 Trust Radius=3.00D-01 FncErr=1.00D-07 GrdErr=1.00D-07
 Number of steps in this run=     48 maximum allowed number of steps=    100.
 GradGradGradGradGradGradGradGradGradGradGradGradGradGradGradGradGradGrad

 Leave Link  103 at Fri Mar 25 08:56:39 2016, MaxMem=    33554432 cpu:         0.0
 (Enter /opt/g09/g09/l202.exe)
                          Input orientation:                          
 ---------------------------------------------------------------------
 Center     Atomic      Atomic             Coordinates (Angstroms)
 Number     Number       Type             X           Y           Z
 ---------------------------------------------------------------------
      1          6           0        0.868397   -0.688663    0.015808
      2          6           0       -0.363541   -1.293981   -0.026504
      3          6           0       -0.351293    1.284838    0.093782
      4          6           0        0.868205    0.744166   -0.064827
      5          1           0        1.776509    1.351092   -0.020496
      6          1           0       -0.570333    2.326340    0.154027
      7          1           0       -0.630247   -2.294702    0.130421
      8          1           0        1.780711   -1.220592   -0.118390
      9         16           0       -1.599485    0.043477   -0.137249
 ---------------------------------------------------------------------
                    Distance matrix (angstroms):
                    1          2          3          4          5
     1  C    0.000000
     2  C    1.373270   0.000000
     3  C    2.321299   2.581652   0.000000
     4  C    1.435096   2.381745   1.343376   0.000000
     5  H    2.233066   3.402391   2.131898   1.093316   0.000000
     6  H    3.343545   3.630713   1.065990   2.149550   2.547398
     7  H    2.199643   1.047473   3.590580   3.393847   4.371163
     8  H    1.064554   2.147474   3.296610   2.166982   2.573550
     9  S    2.578739   1.824449   1.775482   2.566263   3.622268
                    6          7          8          9
     6  H    0.000000
     7  H    4.621491   0.000000
     8  H    4.264076   2.651101   0.000000
     9  S    2.521004   2.545221   3.608871   0.000000
 Stoichiometry    C4H4S
 Framework group  C1[X(C4H4S)]
 Deg. of freedom    21
 Full point group                 C1      NOp   1
 Largest Abelian subgroup         C1      NOp   1
 Largest concise Abelian subgroup C1      NOp   1
                         Standard orientation:                         
 ---------------------------------------------------------------------
 Center     Atomic      Atomic             Coordinates (Angstroms)
 Number     Number       Type             X           Y           Z
 ---------------------------------------------------------------------
      1          6           0       -1.252177    0.725177    0.025154
      2          6           0       -0.014250    1.319477    0.039861
      3          6           0       -0.053686   -1.260803    0.114217
      4          6           0       -1.261526   -0.705986   -0.080610
      5          1           0       -2.176153   -1.304984   -0.081157
      6          1           0        0.153765   -2.305211    0.164327
      7          1           0        0.255119    2.314779    0.224286
      8          1           0       -2.154064    1.267931   -0.133884
      9         16           0        1.213198   -0.027481   -0.047831
 ---------------------------------------------------------------------
 Rotational constants (GHZ):      7.5649812      5.3304459      3.1439208
 Leave Link  202 at Fri Mar 25 08:56:39 2016, MaxMem=    33554432 cpu:         0.0
 (Enter /opt/g09/g09/l301.exe)

 Semi-emprical parameters in input format:
 Method=8 CoreType=1 PeptideFC=0.0130054926 RIJScale=0.4887302135
 ****
 H       
 PQN=1 NValence=1 F0ss=0.4718180406 ZetaOverlap=1.2063753890 U=-0.4026844113
 Beta=-0.2375061252 CoreKO=1.1156935984 KON=0,0,0,1.0502004605 KON=1,0,1,0.9635810405
 KON=0,1,1,0.9330514775 KON=2,1,1,1.0163059844 EISol=-0.4188110042 EHeat=0.0830298228
 Alpha=1.5325669538
 GCore=0.0077972409,1.3730785483,2.0856466358
 GCore=0.0002914631,1.1111893878,3.4323667483
 GCore=-0.0013710866,0.6263466706,3.8061403854
 ****
 C       
 PQN=2,2 NValence=4 F0ss=0.4414293821 F0sp=0.4326790039 F0pp=0.3572497418 F2pp=0.2647976831
 G1sp=0.2634149259
 ZetaOverlap=1.7362973768,1.4000694049
 U=-1.8762342383,-1.4260254375
 Beta=-0.5795077006,-0.3444706868 DDN=0,1,0.7210584891 DDN=1,1,0.8450245162
 CoreKO=1.1744187079 KON=0,0,0,1.0278175134 KON=1,0,1,0.8693172390 KON=0,1,1,0.8629983758
 KON=2,1,1,0.6994472246 EISol=-4.4398989268 EHeat=0.2723305520 Alpha=1.4189169450
 DipHyp=1.4420340120
 GCore=0.0008728220,1.1251244275,2.8122930267
 GCore=0.0032623705,1.0881672798,3.9097056648
 GCore=-0.0012619178,1.3179203212,3.6583902124
 GCore=-0.0001042443,1.0588327379,4.7350277079
 ****
 S       
 PQN=3,3 NValence=6 F0ss=0.4504516255 F0sp=0.3278525659 F0pp=0.3178991935 F2pp=0.2783203788
 G1sp=0.2994566759
 ZetaOverlap=2.2203118665,1.5881872395,1.0271293280
 U=-2.2003585331,-1.8080890038
 Beta=-0.1918869010,-0.2888968783 DDN=0,1,0.9096756330 DDN=1,1,1.0465594377
 CoreKO=1.2688604297 KON=0,0,0,1.0039216616 KON=1,0,1,0.8467026664 KON=0,1,1,0.8718632047
 KON=2,1,1,0.7421927012 EISol=-7.0460287497 EHeat=0.1058151363 Alpha=1.2475155193
 DipHyp=1.8192465971
 GCore=-0.0427564146,1.1863026460,1.1122669290
 GCore=-0.0009262104,1.7337505786,3.0374147736
 GCore=0.0007715030,3.5545222057,4.4470906627
 ****
 
 Standard basis: VSTO-6G (5D, 7F)
 Ernie: Thresh=  0.10000D-02 Tol=  0.10000D-05 Strict=F.
  NNHCO=     0 NNPyr=     0 NCTC=     0               EPep=         0.000000000
    EC=        61.903268587  ECS=         1.559536391   EG=         0.167946708
   EHC=         0.000000000  EAt=       -26.480868474  AtH=         1.527256636
 EPDDG=         0.000000000  ECC=        63.630751686 EAtT=        28.008125109
 There are    24 symmetry adapted cartesian basis functions of A   symmetry.
 There are    24 symmetry adapted basis functions of A   symmetry.
    24 basis functions,   144 primitive gaussians,    24 cartesian basis functions
    13 alpha electrons       13 beta electrons
       nuclear repulsion energy        91.6388767950 Hartrees.
 IExCor=    0 DFT=F Ex=HF Corr=None ExCW=0 ScaHFX=  1.000000
 ScaDFX=  1.000000  1.000000  1.000000  1.000000 ScalE2=  1.000000  1.000000
 IRadAn=      0 IRanWt=     -1 IRanGd=            0 ICorTp=0 IEmpDi=  4
 Integral buffers will be    131072 words long.
 Regular integral format.
 Two-electron integral symmetry is turned off.
 Leave Link  301 at Fri Mar 25 08:56:39 2016, MaxMem=    33554432 cpu:         0.0
 (Enter /opt/g09/g09/l302.exe)
 Do NDO integrals.
 NPDir=0 NMtPBC=     1 NCelOv=     1 NCel=       1 NClECP=     1 NCelD=      1
         NCelK=      1 NCelE2=     1 NClLst=     1 CellRange=     0.0.
 One-electron integrals computed using PRISM.
 NBasis=    24 RedAO= F EigKep=  0.00D+00  NBF=    24
 NBsUse=    24 1.00D-04 EigRej=  0.00D+00 NBFU=    24
 Leave Link  302 at Fri Mar 25 08:56:39 2016, MaxMem=    33554432 cpu:         0.0
 (Enter /opt/g09/g09/l303.exe)
 DipDrv:  MaxL=1.
 Leave Link  303 at Fri Mar 25 08:56:39 2016, MaxMem=    33554432 cpu:         0.0
 (Enter /opt/g09/g09/l401.exe)
 Simple Huckel Guess.
 JPrj=0 DoOrth=F DoCkMO=F.
 Leave Link  401 at Fri Mar 25 08:56:39 2016, MaxMem=    33554432 cpu:         0.0
 (Enter /opt/g09/g09/l502.exe)
 Closed shell SCF:
 Using DIIS extrapolation, IDIIS=  1040.
 Overlap will be assumed to be unity.
 Two-electron integral symmetry not used.
 Keep J ints in memory in canonical form, NReq=888082.
 IVT=       79475 IEndB=       79475 NGot=    33554432 MDV=    33473473
 LenX=    33473473 LenY=    33472456
 Requested convergence on RMS density matrix=1.00D-08 within 128 cycles.
 Requested convergence on MAX density matrix=1.00D-06.
 Requested convergence on             energy=1.00D-06.
 No special actions if energy rises.
 FoFCou: FMM=F IPFlag=           0 FMFlag=           0 FMFlg1=           0
         NFxFlg=           0 DoJE=F BraDBF=F KetDBF=F FulRan=T
         wScrn=  0.000000 ICntrl=     600 IOpCl=  2 I1Cent=           0 NGrid=           0
         NMat0=    1 NMatS0=     54 NMatT0=    0 NMatD0=    1 NMtDS0=    0 NMtDT0=    0
 Symmetry not used in FoFCou.

 Cycle   1  Pass 1  IDiag  1:
 E=-0.761019251600743    
 DIIS: error= 3.68D-02 at cycle   1 NSaved=   1.
 NSaved= 1 IEnMin= 1 EnMin=-0.761019251600743     IErMin= 1 ErrMin= 3.68D-02
 ErrMax= 3.68D-02  0.00D+00 EMaxC= 1.00D-01 BMatC= 5.38D-02 BMatP= 5.38D-02
 IDIUse=3 WtCom= 6.32D-01 WtEn= 3.68D-01
 Coeff-Com:  0.100D+01
 Coeff-En:   0.100D+01
 Coeff:      0.100D+01
 GapD=    2.000 DampG=2.000 DampE=0.500 DampFc=1.0000 IDamp=-1.
 RMSDP=1.52D-02 MaxDP=1.11D-01              OVMax= 0.00D+00

 Cycle   2  Pass 1  IDiag  1:
 E=-0.906262629443290     Delta-E=       -0.145243377843 Rises=F Damp=F
 DIIS: error= 1.10D-02 at cycle   2 NSaved=   2.
 NSaved= 2 IEnMin= 2 EnMin=-0.906262629443290     IErMin= 2 ErrMin= 1.10D-02
 ErrMax= 1.10D-02  0.00D+00 EMaxC= 1.00D-01 BMatC= 4.00D-03 BMatP= 5.38D-02
 IDIUse=3 WtCom= 8.90D-01 WtEn= 1.10D-01
 Coeff-Com: -0.346D+00 0.135D+01
 Coeff-En:   0.000D+00 0.100D+01
 Coeff:     -0.308D+00 0.131D+01
 RMSDP=5.72D-03 MaxDP=5.22D-02 DE=-1.45D-01 OVMax= 0.00D+00

 Cycle   3  Pass 1  IDiag  3:
 E=-0.919085796392636     Delta-E=       -0.012823166949 Rises=F Damp=F
 DIIS: error= 1.41D-03 at cycle   3 NSaved=   3.
 NSaved= 3 IEnMin= 3 EnMin=-0.919085796392636     IErMin= 3 ErrMin= 1.41D-03
 ErrMax= 1.41D-03  0.00D+00 EMaxC= 1.00D-01 BMatC= 7.28D-05 BMatP= 4.00D-03
 IDIUse=3 WtCom= 9.86D-01 WtEn= 1.41D-02
 Coeff-Com:  0.106D+00-0.474D+00 0.137D+01
 Coeff-En:   0.000D+00 0.000D+00 0.100D+01
 Coeff:      0.105D+00-0.468D+00 0.136D+01
 Gap=     0.407 Goal=   None    Shift=    0.000
 RMSDP=1.17D-03 MaxDP=1.20D-02 DE=-1.28D-02 OVMax= 1.08D-02

 Cycle   4  Pass 1  IDiag  3:
 E=-0.919497732840128     Delta-E=       -0.000411936447 Rises=F Damp=F
 DIIS: error= 4.34D-04 at cycle   4 NSaved=   4.
 NSaved= 4 IEnMin= 4 EnMin=-0.919497732840128     IErMin= 4 ErrMin= 4.34D-04
 ErrMax= 4.34D-04  0.00D+00 EMaxC= 1.00D-01 BMatC= 6.81D-06 BMatP= 7.28D-05
 IDIUse=3 WtCom= 9.96D-01 WtEn= 4.34D-03
 Coeff-Com: -0.995D-02 0.548D-01-0.427D+00 0.138D+01
 Coeff-En:   0.000D+00 0.000D+00 0.000D+00 0.100D+01
 Coeff:     -0.991D-02 0.546D-01-0.425D+00 0.138D+01
 Gap=     0.406 Goal=   None    Shift=    0.000
 RMSDP=4.37D-04 MaxDP=4.11D-03 DE=-4.12D-04 OVMax= 4.08D-03

 Cycle   5  Pass 1  IDiag  3:
 E=-0.919545424376054     Delta-E=       -0.000047691536 Rises=F Damp=F
 DIIS: error= 1.61D-04 at cycle   5 NSaved=   5.
 NSaved= 5 IEnMin= 5 EnMin=-0.919545424376054     IErMin= 5 ErrMin= 1.61D-04
 ErrMax= 1.61D-04  0.00D+00 EMaxC= 1.00D-01 BMatC= 1.09D-06 BMatP= 6.81D-06
 IDIUse=3 WtCom= 9.98D-01 WtEn= 1.61D-03
 Coeff-Com: -0.167D-02 0.232D-02 0.178D+00-0.100D+01 0.183D+01
 Coeff-En:   0.000D+00 0.000D+00 0.000D+00 0.000D+00 0.100D+01
 Coeff:     -0.166D-02 0.232D-02 0.178D+00-0.100D+01 0.182D+01
 Gap=     0.406 Goal=   None    Shift=    0.000
 RMSDP=2.10D-04 MaxDP=1.70D-03 DE=-4.77D-05 OVMax= 1.69D-03

 Cycle   6  Pass 1  IDiag  3:
 E=-0.919554083118086     Delta-E=       -0.000008658742 Rises=F Damp=F
 DIIS: error= 5.55D-05 at cycle   6 NSaved=   6.
 NSaved= 6 IEnMin= 6 EnMin=-0.919554083118086     IErMin= 6 ErrMin= 5.55D-05
 ErrMax= 5.55D-05  0.00D+00 EMaxC= 1.00D-01 BMatC= 1.33D-07 BMatP= 1.09D-06
 IDIUse=1 WtCom= 1.00D+00 WtEn= 0.00D+00
 Coeff-Com:  0.495D-03 0.934D-03-0.124D+00 0.703D+00-0.152D+01 0.194D+01
 Coeff:      0.495D-03 0.934D-03-0.124D+00 0.703D+00-0.152D+01 0.194D+01
 Gap=     0.405 Goal=   None    Shift=    0.000
 RMSDP=7.80D-05 MaxDP=5.73D-04 DE=-8.66D-06 OVMax= 4.88D-04

 Cycle   7  Pass 1  IDiag  3:
 E=-0.919555176333532     Delta-E=       -0.000001093215 Rises=F Damp=F
 DIIS: error= 1.57D-05 at cycle   7 NSaved=   7.
 NSaved= 7 IEnMin= 7 EnMin=-0.919555176333532     IErMin= 7 ErrMin= 1.57D-05
 ErrMax= 1.57D-05  0.00D+00 EMaxC= 1.00D-01 BMatC= 1.14D-08 BMatP= 1.33D-07
 IDIUse=1 WtCom= 1.00D+00 WtEn= 0.00D+00
 Coeff-Com: -0.325D-03-0.403D-03 0.755D-01-0.438D+00 0.978D+00-0.146D+01
 Coeff-Com:  0.185D+01
 Coeff:     -0.325D-03-0.403D-03 0.755D-01-0.438D+00 0.978D+00-0.146D+01
 Coeff:      0.185D+01
 Gap=     0.405 Goal=   None    Shift=    0.000
 RMSDP=2.49D-05 MaxDP=1.92D-04 DE=-1.09D-06 OVMax= 2.01D-04

 Cycle   8  Pass 1  IDiag  3:
 E=-0.919555276092822     Delta-E=       -0.000000099759 Rises=F Damp=F
 DIIS: error= 4.61D-06 at cycle   8 NSaved=   8.
 NSaved= 8 IEnMin= 8 EnMin=-0.919555276092822     IErMin= 8 ErrMin= 4.61D-06
 ErrMax= 4.61D-06  0.00D+00 EMaxC= 1.00D-01 BMatC= 8.01D-10 BMatP= 1.14D-08
 IDIUse=1 WtCom= 1.00D+00 WtEn= 0.00D+00
 Coeff-Com:  0.858D-04 0.117D-03-0.202D-01 0.117D+00-0.264D+00 0.416D+00
 Coeff-Com: -0.704D+00 0.145D+01
 Coeff:      0.858D-04 0.117D-03-0.202D-01 0.117D+00-0.264D+00 0.416D+00
 Coeff:     -0.704D+00 0.145D+01
 Gap=     0.405 Goal=   None    Shift=    0.000
 RMSDP=5.29D-06 MaxDP=4.39D-05 DE=-9.98D-08 OVMax= 4.43D-05

 Cycle   9  Pass 1  IDiag  3:
 E=-0.919555282192519     Delta-E=       -0.000000006100 Rises=F Damp=F
 DIIS: error= 2.53D-06 at cycle   9 NSaved=   9.
 NSaved= 9 IEnMin= 9 EnMin=-0.919555282192519     IErMin= 9 ErrMin= 2.53D-06
 ErrMax= 2.53D-06  0.00D+00 EMaxC= 1.00D-01 BMatC= 2.06D-10 BMatP= 8.01D-10
 IDIUse=1 WtCom= 1.00D+00 WtEn= 0.00D+00
 Coeff-Com: -0.366D-04-0.129D-03 0.114D-01-0.648D-01 0.145D+00-0.230D+00
 Coeff-Com:  0.444D+00-0.136D+01 0.206D+01
 Coeff:     -0.366D-04-0.129D-03 0.114D-01-0.648D-01 0.145D+00-0.230D+00
 Coeff:      0.444D+00-0.136D+01 0.206D+01
 Gap=     0.405 Goal=   None    Shift=    0.000
 RMSDP=3.02D-06 MaxDP=2.28D-05 DE=-6.10D-09 OVMax= 2.50D-05

 Cycle  10  Pass 1  IDiag  3:
 E=-0.919555284110786     Delta-E=       -0.000000001918 Rises=F Damp=F
 DIIS: error= 1.10D-06 at cycle  10 NSaved=  10.
 NSaved=10 IEnMin=10 EnMin=-0.919555284110786     IErMin=10 ErrMin= 1.10D-06
 ErrMax= 1.10D-06  0.00D+00 EMaxC= 1.00D-01 BMatC= 4.22D-11 BMatP= 2.06D-10
 IDIUse=1 WtCom= 1.00D+00 WtEn= 0.00D+00
 Coeff-Com:  0.195D-04 0.155D-04-0.350D-02 0.201D-01-0.453D-01 0.746D-01
 Coeff-Com: -0.188D+00 0.838D+00-0.193D+01 0.224D+01
 Coeff:      0.195D-04 0.155D-04-0.350D-02 0.201D-01-0.453D-01 0.746D-01
 Coeff:     -0.188D+00 0.838D+00-0.193D+01 0.224D+01
 Gap=     0.405 Goal=   None    Shift=    0.000
 RMSDP=2.07D-06 MaxDP=1.67D-05 DE=-1.92D-09 OVMax= 1.66D-05

 Cycle  11  Pass 1  IDiag  3:
 E=-0.919555284577584     Delta-E=       -0.000000000467 Rises=F Damp=F
 DIIS: error= 1.48D-07 at cycle  11 NSaved=  11.
 NSaved=11 IEnMin=11 EnMin=-0.919555284577584     IErMin=11 ErrMin= 1.48D-07
 ErrMax= 1.48D-07  0.00D+00 EMaxC= 1.00D-01 BMatC= 1.00D-12 BMatP= 4.22D-11
 IDIUse=1 WtCom= 1.00D+00 WtEn= 0.00D+00
 Coeff-Com: -0.319D-05-0.492D-05 0.561D-03-0.317D-02 0.697D-02-0.118D-01
 Coeff-Com:  0.395D-01-0.221D+00 0.591D+00-0.843D+00 0.144D+01
 Coeff:     -0.319D-05-0.492D-05 0.561D-03-0.317D-02 0.697D-02-0.118D-01
 Coeff:      0.395D-01-0.221D+00 0.591D+00-0.843D+00 0.144D+01
 Gap=     0.405 Goal=   None    Shift=    0.000
 RMSDP=2.29D-07 MaxDP=1.69D-06 DE=-4.67D-10 OVMax= 1.41D-06

 Cycle  12  Pass 1  IDiag  3:
 E=-0.919555284584803     Delta-E=       -0.000000000007 Rises=F Damp=F
 DIIS: error= 2.09D-08 at cycle  12 NSaved=  12.
 NSaved=12 IEnMin=12 EnMin=-0.919555284584803     IErMin=12 ErrMin= 2.09D-08
 ErrMax= 2.09D-08  0.00D+00 EMaxC= 1.00D-01 BMatC= 2.54D-14 BMatP= 1.00D-12
 IDIUse=1 WtCom= 1.00D+00 WtEn= 0.00D+00
 Coeff-Com:  0.488D-06 0.363D-05-0.161D-03 0.877D-03-0.187D-02 0.318D-02
 Coeff-Com: -0.123D-01 0.754D-01-0.208D+00 0.309D+00-0.618D+00 0.145D+01
 Coeff:      0.488D-06 0.363D-05-0.161D-03 0.877D-03-0.187D-02 0.318D-02
 Coeff:     -0.123D-01 0.754D-01-0.208D+00 0.309D+00-0.618D+00 0.145D+01
 Gap=     0.405 Goal=   None    Shift=    0.000
 RMSDP=2.53D-08 MaxDP=1.53D-07 DE=-7.22D-12 OVMax= 1.85D-07

 Cycle  13  Pass 1  IDiag  3:
 E=-0.919555284584931     Delta-E=        0.000000000000 Rises=F Damp=F
 DIIS: error= 4.46D-09 at cycle  13 NSaved=  13.
 NSaved=13 IEnMin=13 EnMin=-0.919555284584931     IErMin=13 ErrMin= 4.46D-09
 ErrMax= 4.46D-09  0.00D+00 EMaxC= 1.00D-01 BMatC= 1.01D-15 BMatP= 2.54D-14
 IDIUse=1 WtCom= 1.00D+00 WtEn= 0.00D+00
 Coeff-Com: -0.878D-07-0.186D-05 0.611D-04-0.326D-03 0.683D-03-0.114D-02
 Coeff-Com:  0.458D-02-0.287D-01 0.797D-01-0.118D+00 0.241D+00-0.677D+00
 Coeff-Com:  0.150D+01
 Coeff:     -0.878D-07-0.186D-05 0.611D-04-0.326D-03 0.683D-03-0.114D-02
 Coeff:      0.458D-02-0.287D-01 0.797D-01-0.118D+00 0.241D+00-0.677D+00
 Coeff:      0.150D+01
 Gap=     0.405 Goal=   None    Shift=    0.000
 RMSDP=6.00D-09 MaxDP=4.25D-08 DE=-1.28D-13 OVMax= 5.65D-08

 Cycle  14  Pass 2  IDiag  1:
 SCF Done:  E(RAM1) = -0.919555284585     A.U. after   14 cycles
            NFock= 13  Conv=0.60D-08     -V/T= 0.9380
 KE=-1.483461239972D+01 PE=-1.558523938140D+02 EE= 7.812857413413D+01
 Leave Link  502 at Fri Mar 25 08:56:39 2016, MaxMem=    33554432 cpu:         0.0
 (Enter /opt/g09/g09/l601.exe)
 Copying SCF densities to generalized density rwf, IOpCl= 0 IROHF=0.

 **********************************************************************

            Population analysis using the SCF density.

 **********************************************************************

 Orbital symmetries:
       Occupied  (A) (A) (A) (A) (A) (A) (A) (A) (A) (A) (A) (A)
                 (A)
       Virtual   (A) (A) (A) (A) (A) (A) (A) (A) (A) (A) (A)
 The electronic state is 1-A.
 Alpha  occ. eigenvalues --   -1.25334  -0.97240  -0.83063  -0.65678  -0.64228
 Alpha  occ. eigenvalues --   -0.53898  -0.50452  -0.37009  -0.35522  -0.33509
 Alpha  occ. eigenvalues --   -0.27653  -0.25219  -0.22690
 Alpha virt. eigenvalues --    0.17856   0.24053   0.25596   0.27321   0.34503
 Alpha virt. eigenvalues --    0.35115   0.36963   0.37701   0.44327   0.44704
 Alpha virt. eigenvalues --    0.47551
          Condensed to atoms (all electrons):
               1          2          3          4          5          6
     1  C    4.133674   0.000000   0.000000   0.000000   0.000000   0.000000
     2  C    0.000000   4.324051   0.000000   0.000000   0.000000   0.000000
     3  C    0.000000   0.000000   4.265400   0.000000   0.000000   0.000000
     4  C    0.000000   0.000000   0.000000   4.180833   0.000000   0.000000
     5  H    0.000000   0.000000   0.000000   0.000000   0.835472   0.000000
     6  H    0.000000   0.000000   0.000000   0.000000   0.000000   0.808679
     7  H    0.000000   0.000000   0.000000   0.000000   0.000000   0.000000
     8  H    0.000000   0.000000   0.000000   0.000000   0.000000   0.000000
     9  S    0.000000   0.000000   0.000000   0.000000   0.000000   0.000000
               7          8          9
     1  C    0.000000   0.000000   0.000000
     2  C    0.000000   0.000000   0.000000
     3  C    0.000000   0.000000   0.000000
     4  C    0.000000   0.000000   0.000000
     5  H    0.000000   0.000000   0.000000
     6  H    0.000000   0.000000   0.000000
     7  H    0.787935   0.000000   0.000000
     8  H    0.000000   0.835549   0.000000
     9  S    0.000000   0.000000   5.828408
 Mulliken charges:
               1
     1  C   -0.133674
     2  C   -0.324051
     3  C   -0.265400
     4  C   -0.180833
     5  H    0.164528
     6  H    0.191321
     7  H    0.212065
     8  H    0.164451
     9  S    0.171592
 Sum of Mulliken charges =   0.00000
 Mulliken charges with hydrogens summed into heavy atoms:
               1
     1  C    0.030776
     2  C   -0.111985
     3  C   -0.074078
     4  C   -0.016305
     9  S    0.171592
 Charge=              0.0000 electrons
 Dipole moment (field-independent basis, Debye):
    X=             -1.2686    Y=             -0.1519    Z=              0.1121  Tot=              1.2825
 N-N= 9.163887679499D+01 E-N=-1.558523937966D+02  KE=-1.483461239972D+01
 Leave Link  601 at Fri Mar 25 08:56:39 2016, MaxMem=    33554432 cpu:         0.0
 (Enter /opt/g09/g09/l701.exe)
 Compute integral first derivatives.
 ... and contract with generalized density number  0.
 Leave Link  701 at Fri Mar 25 08:56:39 2016, MaxMem=    33554432 cpu:         0.0
 (Enter /opt/g09/g09/l702.exe)
 L702 exits ... SP integral derivatives will be done elsewhere.
 Leave Link  702 at Fri Mar 25 08:56:39 2016, MaxMem=    33554432 cpu:         0.0
 (Enter /opt/g09/g09/l703.exe)
 Compute integral first derivatives, UseDBF=F ICtDFT=           0.
 Integral derivatives from FoFJK, PRISM(SPDF).
 Calling FoFJK, ICntrl=      2127 FMM=F ISym2X=0 I1Cent= 0 IOpClX= 0 NMat=1 NMatS=1 NMatT=0.
 FoFJK:  IHMeth= 8 ICntrl=    2127 DoSepK=F KAlg= 0 I1Cent=   0 FoldK=F
 IRaf=         0 NMat=   1 IRICut=       1 DoRegI=T DoRafI=F ISym2E= 0.
 FoFCou: FMM=F IPFlag=           0 FMFlag=      100000 FMFlg1=         800
         NFxFlg=           0 DoJE=F BraDBF=F KetDBF=F FulRan=T
         wScrn=  0.000000 ICntrl=    2127 IOpCl=  0 I1Cent=           0 NGrid=           0
         NMat0=    1 NMatS0=      1 NMatT0=    0 NMatD0=    1 NMtDS0=    0 NMtDT0=    0
 Symmetry not used in FoFCou.
 Leave Link  703 at Fri Mar 25 08:56:39 2016, MaxMem=    33554432 cpu:         0.0
 (Enter /opt/g09/g09/l716.exe)
 Dipole        =-4.99087375D-01-5.97450335D-02 4.41179536D-02
 ***** Axes restored to original set *****
 -------------------------------------------------------------------
 Center     Atomic                   Forces (Hartrees/Bohr)
 Number     Number              X              Y              Z
 -------------------------------------------------------------------
      1        6          -0.022113735   -0.024695918   -0.030149060
      2        6           0.023570226    0.053067487    0.005623169
      3        6           0.002645891    0.001317365   -0.031120106
      4        6           0.019167317    0.015034047    0.036550742
      5        1          -0.001666743   -0.006157323   -0.003663157
      6        1          -0.009174242    0.005593582    0.000575247
      7        1          -0.007931167   -0.015524681   -0.005625791
      8        1           0.014345817   -0.010247803    0.008826619
      9       16          -0.018843363   -0.018386756    0.018982337
 -------------------------------------------------------------------
 Cartesian Forces:  Max     0.053067487 RMS     0.019498751
 Leave Link  716 at Fri Mar 25 08:56:39 2016, MaxMem=    33554432 cpu:         0.0
 (Enter /opt/g09/g09/l103.exe)

 GradGradGradGradGradGradGradGradGradGradGradGradGradGradGradGradGradGrad
 Berny optimization.
 FormGI is forming the generalized inverse of G from B-inverse, IUseBI=4.
 Internal  Forces:  Max     0.022685863 RMS     0.010016604
 Search for a local minimum.
 Step number   1 out of a maximum of   48
 All quantities printed in internal units (Hartrees-Bohrs-Radians)
 RMS Force = .10017D-01 SwitMx=.10000D-02 MixMth= 1
 Mixed Optimization -- RFO/linear search
 Second derivative matrix not updated -- first step.
 ITU=  0
     Eigenvalues ---    0.01360   0.01745   0.02108   0.02195   0.02269
     Eigenvalues ---    0.02466   0.15309   0.15569   0.15726   0.15784
     Eigenvalues ---    0.21811   0.22399   0.24100   0.27658   0.34432
     Eigenvalues ---    0.37742   0.37927   0.39043   0.40229   0.47844
     Eigenvalues ---    0.54225
 RFO step:  Lambda=-2.96651707D-02 EMin= 1.36047835D-02
 Linear search not attempted -- first point.
 Iteration  1 RMS(Cart)=  0.07527466 RMS(Int)=  0.02372930
 Iteration  2 RMS(Cart)=  0.01997823 RMS(Int)=  0.00554919
 Iteration  3 RMS(Cart)=  0.00046029 RMS(Int)=  0.00553090
 Iteration  4 RMS(Cart)=  0.00000140 RMS(Int)=  0.00553090
 Iteration  5 RMS(Cart)=  0.00000001 RMS(Int)=  0.00553090
 ITry= 1 IFail=0 DXMaxC= 3.60D-01 DCOld= 1.00D+10 DXMaxT= 3.00D-01 DXLimC= 3.00D+00 Rises=F
 Variable       Old X    -DE/DX   Delta X   Delta X   Delta X     New X
                                 (Linear)    (Quad)   (Total)
    R1        2.59510  -0.01847   0.00000  -0.03841  -0.03666   2.55844
    R2        2.71194   0.01168   0.00000   0.02756   0.02779   2.73973
    R3        2.01171   0.01630   0.00000   0.03986   0.03986   2.05158
    R4        1.97944   0.01601   0.00000   0.03706   0.03706   2.01650
    R5        3.44771  -0.00722   0.00000  -0.03299  -0.03181   3.41590
    R6        2.53861   0.01658   0.00000   0.03168   0.03010   2.56871
    R7        2.01443   0.00738   0.00000   0.01814   0.01814   2.03256
    R8        3.35517   0.00953   0.00000   0.03542   0.03392   3.38909
    R9        2.06607  -0.00495   0.00000  -0.01324  -0.01324   2.05283
    A1        2.02443  -0.00794   0.00000  -0.02403  -0.03225   1.99218
    A2        2.14678   0.00404   0.00000   0.02269   0.02316   2.16994
    A3        2.08508   0.00549   0.00000   0.02933   0.02985   2.11494
    A4        2.27170  -0.00712   0.00000  -0.01983  -0.01729   2.25441
    A5        1.86132   0.02269   0.00000   0.08476   0.07995   1.94127
    A6        2.13763  -0.01555   0.00000  -0.06648  -0.06408   2.07354
    A7        2.19744   0.00632   0.00000   0.03747   0.03199   2.22943
    A8        1.91923   0.00596   0.00000   0.05972   0.03830   1.95754
    A9        2.14838  -0.00980   0.00000  -0.04888  -0.05380   2.09459
   A10        1.97722  -0.00528   0.00000   0.00968  -0.00643   1.97079
   A11        2.15539  -0.00016   0.00000  -0.00253  -0.00502   2.15037
   A12        2.12464   0.00770   0.00000   0.03941   0.03706   2.16170
   A13        1.59920  -0.01046   0.00000  -0.02647  -0.03890   1.56030
    D1       -2.99524   0.00056   0.00000  -0.00976  -0.00991  -3.00515
    D2       -0.02345  -0.00025   0.00000  -0.02457  -0.02398  -0.04743
    D3        0.39524  -0.00731   0.00000  -0.14074  -0.14096   0.25427
    D4       -2.91616  -0.00812   0.00000  -0.15555  -0.15503  -3.07119
    D5        0.21537  -0.01197   0.00000  -0.21650  -0.21489   0.00049
    D6        3.11736  -0.00068   0.00000   0.00047  -0.00171   3.11564
    D7        3.11741  -0.00452   0.00000  -0.09108  -0.08905   3.02836
    D8       -0.26380   0.00677   0.00000   0.12589   0.12413  -0.13967
    D9       -0.11849   0.00766   0.00000   0.18096   0.17948   0.06099
   D10        2.86940   0.00753   0.00000   0.17154   0.17070   3.04010
   D11        3.04440   0.00432   0.00000   0.08484   0.08249   3.12689
   D12        0.13766  -0.00557   0.00000  -0.12143  -0.12573   0.01193
   D13       -0.29665   0.01664   0.00000   0.34177   0.34403   0.04738
   D14        3.07979   0.00675   0.00000   0.13550   0.13581  -3.06758
   D15        0.24028  -0.01463   0.00000  -0.30419  -0.30161  -0.06133
   D16       -3.09407  -0.00060   0.00000  -0.04460  -0.05216   3.13695
         Item               Value     Threshold  Converged?
 Maximum Force            0.022686     0.000450     NO 
 RMS     Force            0.010017     0.000300     NO 
 Maximum Displacement     0.360465     0.001800     NO 
 RMS     Displacement     0.090513     0.001200     NO 
 Predicted change in Energy=-2.186639D-02
 Lowest energy point so far.  Saving SCF results.
 GradGradGradGradGradGradGradGradGradGradGradGradGradGradGradGradGradGrad

 Leave Link  103 at Fri Mar 25 08:56:39 2016, MaxMem=    33554432 cpu:         0.0
 (Enter /opt/g09/g09/l202.exe)
                          Input orientation:                          
 ---------------------------------------------------------------------
 Center     Atomic      Atomic             Coordinates (Angstroms)
 Number     Number       Type             X           Y           Z
 ---------------------------------------------------------------------
      1          6           0        0.884767   -0.699305   -0.018578
      2          6           0       -0.353681   -1.245916   -0.039247
      3          6           0       -0.356192    1.286585    0.008441
      4          6           0        0.892816    0.750223    0.008449
      5          1           0        1.804477    1.339423    0.050726
      6          1           0       -0.625643    2.327450    0.038157
      7          1           0       -0.640071   -2.269808    0.051831
      8          1           0        1.805344   -1.264532   -0.126707
      9         16           0       -1.632894    0.027855    0.053501
 ---------------------------------------------------------------------
                    Distance matrix (angstroms):
                    1          2          3          4          5
     1  C    0.000000
     2  C    1.353870   0.000000
     3  C    2.341894   2.532951   0.000000
     4  C    1.449802   2.353847   1.359303   0.000000
     5  H    2.237651   3.368934   2.161729   1.086310   0.000000
     6  H    3.383165   3.584536   1.075587   2.189577   2.623326
     7  H    2.190107   1.067085   3.567968   3.387065   4.359170
     8  H    1.085649   2.160876   3.346446   2.215899   2.609993
     9  S    2.621560   1.807617   1.793432   2.627366   3.679095
                    6          7          8          9
     6  H    0.000000
     7  H    4.597301   0.000000
     8  H    4.340416   2.650002   0.000000
     9  S    2.510563   2.502989   3.677529   0.000000
 Stoichiometry    C4H4S
 Framework group  C1[X(C4H4S)]
 Deg. of freedom    21
 Full point group                 C1      NOp   1
 RotChk:  IX=0 Diff= 8.87D-02
 Largest Abelian subgroup         C1      NOp   1
 Largest concise Abelian subgroup C1      NOp   1
                         Standard orientation:                         
 ---------------------------------------------------------------------
 Center     Atomic      Atomic             Coordinates (Angstroms)
 Number     Number       Type             X           Y           Z
 ---------------------------------------------------------------------
      1          6           0       -1.278488    0.727676    0.011343
      2          6           0       -0.039719    1.272353   -0.030409
      3          6           0       -0.041633   -1.260594   -0.026597
      4          6           0       -1.289073   -0.722086    0.013491
      5          1           0       -2.200717   -1.310303    0.068045
      6          1           0        0.226167   -2.302297   -0.021539
      7          1           0        0.251090    2.293999    0.071269
      8          1           0       -2.200197    1.296334   -0.064258
      9         16           0        1.238571   -0.005115    0.008720
 ---------------------------------------------------------------------
 Rotational constants (GHZ):      7.7491741      5.1370284      3.0906896
 Leave Link  202 at Fri Mar 25 08:56:39 2016, MaxMem=    33554432 cpu:         0.0
 (Enter /opt/g09/g09/l301.exe)

 Semi-emprical parameters in input format:
 Method=8 CoreType=1 PeptideFC=0.0130054926 RIJScale=0.4887302135
 ****
 H       
 PQN=1 NValence=1 F0ss=0.4718180406 ZetaOverlap=1.2063753890 U=-0.4026844113
 Beta=-0.2375061252 CoreKO=1.1156935984 KON=0,0,0,1.0502004605 KON=1,0,1,0.9635810405
 KON=0,1,1,0.9330514775 KON=2,1,1,1.0163059844 EISol=-0.4188110042 EHeat=0.0830298228
 Alpha=1.5325669538
 GCore=0.0077972409,1.3730785483,2.0856466358
 GCore=0.0002914631,1.1111893878,3.4323667483
 GCore=-0.0013710866,0.6263466706,3.8061403854
 ****
 C       
 PQN=2,2 NValence=4 F0ss=0.4414293821 F0sp=0.4326790039 F0pp=0.3572497418 F2pp=0.2647976831
 G1sp=0.2634149259
 ZetaOverlap=1.7362973768,1.4000694049
 U=-1.8762342383,-1.4260254375
 Beta=-0.5795077006,-0.3444706868 DDN=0,1,0.7210584891 DDN=1,1,0.8450245162
 CoreKO=1.1744187079 KON=0,0,0,1.0278175134 KON=1,0,1,0.8693172390 KON=0,1,1,0.8629983758
 KON=2,1,1,0.6994472246 EISol=-4.4398989268 EHeat=0.2723305520 Alpha=1.4189169450
 DipHyp=1.4420340120
 GCore=0.0008728220,1.1251244275,2.8122930267
 GCore=0.0032623705,1.0881672798,3.9097056648
 GCore=-0.0012619178,1.3179203212,3.6583902124
 GCore=-0.0001042443,1.0588327379,4.7350277079
 ****
 S       
 PQN=3,3 NValence=6 F0ss=0.4504516255 F0sp=0.3278525659 F0pp=0.3178991935 F2pp=0.2783203788
 G1sp=0.2994566759
 ZetaOverlap=2.2203118665,1.5881872395,1.0271293280
 U=-2.2003585331,-1.8080890038
 Beta=-0.1918869010,-0.2888968783 DDN=0,1,0.9096756330 DDN=1,1,1.0465594377
 CoreKO=1.2688604297 KON=0,0,0,1.0039216616 KON=1,0,1,0.8467026664 KON=0,1,1,0.8718632047
 KON=2,1,1,0.7421927012 EISol=-7.0460287497 EHeat=0.1058151363 Alpha=1.2475155193
 DipHyp=1.8192465971
 GCore=-0.0427564146,1.1863026460,1.1122669290
 GCore=-0.0009262104,1.7337505786,3.0374147736
 GCore=0.0007715030,3.5545222057,4.4470906627
 ****
 
 Standard basis: VSTO-6G (5D, 7F)
 Ernie: Thresh=  0.10000D-02 Tol=  0.10000D-05 Strict=F.
  NNHCO=     0 NNPyr=     0 NCTC=     0               EPep=         0.000000000
    EC=        61.719431329  ECS=         1.529369985   EG=         0.166217982
   EHC=         0.000000000  EAt=       -26.480868474  AtH=         1.527256636
 EPDDG=         0.000000000  ECC=        63.415019297 EAtT=        28.008125109
 There are    24 symmetry adapted cartesian basis functions of A   symmetry.
 There are    24 symmetry adapted basis functions of A   symmetry.
    24 basis functions,   144 primitive gaussians,    24 cartesian basis functions
    13 alpha electrons       13 beta electrons
       nuclear repulsion energy        91.4231444059 Hartrees.
 IExCor=    0 DFT=F Ex=HF Corr=None ExCW=0 ScaHFX=  1.000000
 ScaDFX=  1.000000  1.000000  1.000000  1.000000 ScalE2=  1.000000  1.000000
 IRadAn=      0 IRanWt=     -1 IRanGd=            0 ICorTp=0 IEmpDi=  4
 Integral buffers will be    131072 words long.
 Regular integral format.
 Two-electron integral symmetry is turned off.
 Leave Link  301 at Fri Mar 25 08:56:40 2016, MaxMem=    33554432 cpu:         0.0
 (Enter /opt/g09/g09/l302.exe)
 Do NDO integrals.
 NPDir=0 NMtPBC=     1 NCelOv=     1 NCel=       1 NClECP=     1 NCelD=      1
         NCelK=      1 NCelE2=     1 NClLst=     1 CellRange=     0.0.
 One-electron integrals computed using PRISM.
 NBasis=    24 RedAO= F EigKep=  0.00D+00  NBF=    24
 NBsUse=    24 1.00D-04 EigRej=  0.00D+00 NBFU=    24
 Leave Link  302 at Fri Mar 25 08:56:40 2016, MaxMem=    33554432 cpu:         0.0
 (Enter /opt/g09/g09/l303.exe)
 DipDrv:  MaxL=1.
 Leave Link  303 at Fri Mar 25 08:56:40 2016, MaxMem=    33554432 cpu:         0.0
 (Enter /opt/g09/g09/l401.exe)
 Initial guess from the checkpoint file:  "freq.chk"
 B after Tr=     0.000000    0.000000    0.000000
         Rot=    0.999986   -0.000262   -0.000120   -0.005337 Ang=  -0.61 deg.
 Guess basis will be translated and rotated to current coordinates.
 JPrj=0 DoOrth=T DoCkMO=T.
 Leave Link  401 at Fri Mar 25 08:56:40 2016, MaxMem=    33554432 cpu:         0.0
 (Enter /opt/g09/g09/l502.exe)
 Closed shell SCF:
 Using DIIS extrapolation, IDIIS=  1040.
 Overlap will be assumed to be unity.
 Two-electron integral symmetry not used.
 Keep J ints in memory in canonical form, NReq=888082.
 IVT=       79475 IEndB=       79475 NGot=    33554432 MDV=    33473473
 LenX=    33473473 LenY=    33472456
 Requested convergence on RMS density matrix=1.00D-08 within 128 cycles.
 Requested convergence on MAX density matrix=1.00D-06.
 Requested convergence on             energy=1.00D-06.
 No special actions if energy rises.
 FoFCou: FMM=F IPFlag=           0 FMFlag=           0 FMFlg1=           0
         NFxFlg=           0 DoJE=F BraDBF=F KetDBF=F FulRan=T
         wScrn=  0.000000 ICntrl=     600 IOpCl=  2 I1Cent=           0 NGrid=           0
         NMat0=    1 NMatS0=     54 NMatT0=    0 NMatD0=    1 NMtDS0=    0 NMtDT0=    0
 Symmetry not used in FoFCou.

 Cycle   1  Pass 1  IDiag  1:
 E=-0.887225545362512    
 DIIS: error= 2.31D-02 at cycle   1 NSaved=   1.
 NSaved= 1 IEnMin= 1 EnMin=-0.887225545362512     IErMin= 1 ErrMin= 2.31D-02
 ErrMax= 2.31D-02  0.00D+00 EMaxC= 1.00D-01 BMatC= 1.24D-02 BMatP= 1.24D-02
 IDIUse=3 WtCom= 7.69D-01 WtEn= 2.31D-01
 Coeff-Com:  0.100D+01
 Coeff-En:   0.100D+01
 Coeff:      0.100D+01
 GapD=    2.000 DampG=2.000 DampE=0.500 DampFc=1.0000 IDamp=-1.
 RMSDP=7.81D-03 MaxDP=5.28D-02              OVMax= 0.00D+00

 Cycle   2  Pass 1  IDiag  1:
 E=-0.925740183685974     Delta-E=       -0.038514638323 Rises=F Damp=F
 DIIS: error= 8.47D-03 at cycle   2 NSaved=   2.
 NSaved= 2 IEnMin= 2 EnMin=-0.925740183685974     IErMin= 2 ErrMin= 8.47D-03
 ErrMax= 8.47D-03  0.00D+00 EMaxC= 1.00D-01 BMatC= 1.62D-03 BMatP= 1.24D-02
 IDIUse=3 WtCom= 9.15D-01 WtEn= 8.47D-02
 Coeff-Com: -0.489D+00 0.149D+01
 Coeff-En:   0.000D+00 0.100D+01
 Coeff:     -0.448D+00 0.145D+01
 RMSDP=4.75D-03 MaxDP=3.24D-02 DE=-3.85D-02 OVMax= 0.00D+00

 Cycle   3  Pass 1  IDiag  3:
 E=-0.933032261781023     Delta-E=       -0.007292078095 Rises=F Damp=F
 DIIS: error= 1.40D-03 at cycle   3 NSaved=   3.
 NSaved= 3 IEnMin= 3 EnMin=-0.933032261781023     IErMin= 3 ErrMin= 1.40D-03
 ErrMax= 1.40D-03  0.00D+00 EMaxC= 1.00D-01 BMatC= 5.56D-05 BMatP= 1.62D-03
 IDIUse=3 WtCom= 9.86D-01 WtEn= 1.40D-02
 Coeff-Com:  0.207D+00-0.761D+00 0.155D+01
 Coeff-En:   0.000D+00 0.000D+00 0.100D+01
 Coeff:      0.204D+00-0.751D+00 0.155D+01
 Gap=     0.414 Goal=   None    Shift=    0.000
 RMSDP=1.27D-03 MaxDP=7.38D-03 DE=-7.29D-03 OVMax= 9.97D-03

 Cycle   4  Pass 1  IDiag  3:
 E=-0.933378031772492     Delta-E=       -0.000345769991 Rises=F Damp=F
 DIIS: error= 1.42D-04 at cycle   4 NSaved=   4.
 NSaved= 4 IEnMin= 4 EnMin=-0.933378031772492     IErMin= 4 ErrMin= 1.42D-04
 ErrMax= 1.42D-04  0.00D+00 EMaxC= 1.00D-01 BMatC= 1.52D-06 BMatP= 5.56D-05
 IDIUse=3 WtCom= 9.99D-01 WtEn= 1.42D-03
 Coeff-Com: -0.961D-01 0.360D+00-0.813D+00 0.155D+01
 Coeff-En:   0.000D+00 0.000D+00 0.000D+00 0.100D+01
 Coeff:     -0.960D-01 0.359D+00-0.812D+00 0.155D+01
 Gap=     0.415 Goal=   None    Shift=    0.000
 RMSDP=2.07D-04 MaxDP=8.87D-04 DE=-3.46D-04 OVMax= 1.39D-03

 Cycle   5  Pass 1  IDiag  3:
 E=-0.933388124875037     Delta-E=       -0.000010093103 Rises=F Damp=F
 DIIS: error= 6.71D-05 at cycle   5 NSaved=   5.
 NSaved= 5 IEnMin= 5 EnMin=-0.933388124875037     IErMin= 5 ErrMin= 6.71D-05
 ErrMax= 6.71D-05  0.00D+00 EMaxC= 1.00D-01 BMatC= 1.69D-07 BMatP= 1.52D-06
 IDIUse=1 WtCom= 1.00D+00 WtEn= 0.00D+00
 Coeff-Com:  0.254D-01-0.957D-01 0.229D+00-0.645D+00 0.149D+01
 Coeff:      0.254D-01-0.957D-01 0.229D+00-0.645D+00 0.149D+01
 Gap=     0.415 Goal=   None    Shift=    0.000
 RMSDP=6.40D-05 MaxDP=4.33D-04 DE=-1.01D-05 OVMax= 3.47D-04

 Cycle   6  Pass 1  IDiag  3:
 E=-0.933389305602887     Delta-E=       -0.000001180728 Rises=F Damp=F
 DIIS: error= 3.58D-05 at cycle   6 NSaved=   6.
 NSaved= 6 IEnMin= 6 EnMin=-0.933389305602887     IErMin= 6 ErrMin= 3.58D-05
 ErrMax= 3.58D-05  0.00D+00 EMaxC= 1.00D-01 BMatC= 4.12D-08 BMatP= 1.69D-07
 IDIUse=1 WtCom= 1.00D+00 WtEn= 0.00D+00
 Coeff-Com: -0.718D-02 0.273D-01-0.727D-01 0.323D+00-0.134D+01 0.207D+01
 Coeff:     -0.718D-02 0.273D-01-0.727D-01 0.323D+00-0.134D+01 0.207D+01
 Gap=     0.415 Goal=   None    Shift=    0.000
 RMSDP=4.53D-05 MaxDP=3.61D-04 DE=-1.18D-06 OVMax= 2.40D-04

 Cycle   7  Pass 1  IDiag  3:
 E=-0.933389678805256     Delta-E=       -0.000000373202 Rises=F Damp=F
 DIIS: error= 1.09D-05 at cycle   7 NSaved=   7.
 NSaved= 7 IEnMin= 7 EnMin=-0.933389678805256     IErMin= 7 ErrMin= 1.09D-05
 ErrMax= 1.09D-05  0.00D+00 EMaxC= 1.00D-01 BMatC= 4.48D-09 BMatP= 4.12D-08
 IDIUse=1 WtCom= 1.00D+00 WtEn= 0.00D+00
 Coeff-Com: -0.249D-03 0.806D-03 0.223D-02-0.771D-01 0.530D+00-0.119D+01
 Coeff-Com:  0.173D+01
 Coeff:     -0.249D-03 0.806D-03 0.223D-02-0.771D-01 0.530D+00-0.119D+01
 Coeff:      0.173D+01
 Gap=     0.415 Goal=   None    Shift=    0.000
 RMSDP=1.62D-05 MaxDP=1.29D-04 DE=-3.73D-07 OVMax= 1.06D-04

 Cycle   8  Pass 1  IDiag  3:
 E=-0.933389718893011     Delta-E=       -0.000000040088 Rises=F Damp=F
 DIIS: error= 3.86D-06 at cycle   8 NSaved=   8.
 NSaved= 8 IEnMin= 8 EnMin=-0.933389718893011     IErMin= 8 ErrMin= 3.86D-06
 ErrMax= 3.86D-06  0.00D+00 EMaxC= 1.00D-01 BMatC= 4.89D-10 BMatP= 4.48D-09
 IDIUse=1 WtCom= 1.00D+00 WtEn= 0.00D+00
 Coeff-Com:  0.521D-03-0.188D-02 0.205D-02 0.359D-01-0.287D+00 0.690D+00
 Coeff-Com: -0.120D+01 0.176D+01
 Coeff:      0.521D-03-0.188D-02 0.205D-02 0.359D-01-0.287D+00 0.690D+00
 Coeff:     -0.120D+01 0.176D+01
 Gap=     0.415 Goal=   None    Shift=    0.000
 RMSDP=4.15D-06 MaxDP=3.03D-05 DE=-4.01D-08 OVMax= 3.50D-05

 Cycle   9  Pass 1  IDiag  3:
 E=-0.933389722989546     Delta-E=       -0.000000004097 Rises=F Damp=F
 DIIS: error= 2.01D-06 at cycle   9 NSaved=   9.
 NSaved= 9 IEnMin= 9 EnMin=-0.933389722989546     IErMin= 9 ErrMin= 2.01D-06
 ErrMax= 2.01D-06  0.00D+00 EMaxC= 1.00D-01 BMatC= 1.24D-10 BMatP= 4.89D-10
 IDIUse=1 WtCom= 1.00D+00 WtEn= 0.00D+00
 Coeff-Com: -0.503D-03 0.185D-02-0.312D-02-0.133D-01 0.137D+00-0.355D+00
 Coeff-Com:  0.715D+00-0.173D+01 0.225D+01
 Coeff:     -0.503D-03 0.185D-02-0.312D-02-0.133D-01 0.137D+00-0.355D+00
 Coeff:      0.715D+00-0.173D+01 0.225D+01
 Gap=     0.415 Goal=   None    Shift=    0.000
 RMSDP=3.12D-06 MaxDP=2.62D-05 DE=-4.10D-09 OVMax= 2.47D-05

 Cycle  10  Pass 1  IDiag  3:
 E=-0.933389724294017     Delta-E=       -0.000000001304 Rises=F Damp=F
 DIIS: error= 4.10D-07 at cycle  10 NSaved=  10.
 NSaved=10 IEnMin=10 EnMin=-0.933389724294017     IErMin=10 ErrMin= 4.10D-07
 ErrMax= 4.10D-07  0.00D+00 EMaxC= 1.00D-01 BMatC= 6.95D-12 BMatP= 1.24D-10
 IDIUse=1 WtCom= 1.00D+00 WtEn= 0.00D+00
 Coeff-Com:  0.912D-04-0.338D-03 0.619D-03 0.164D-02-0.204D-01 0.567D-01
 Coeff-Com: -0.134D+00 0.457D+00-0.873D+00 0.151D+01
 Coeff:      0.912D-04-0.338D-03 0.619D-03 0.164D-02-0.204D-01 0.567D-01
 Coeff:     -0.134D+00 0.457D+00-0.873D+00 0.151D+01
 Gap=     0.415 Goal=   None    Shift=    0.000
 RMSDP=6.89D-07 MaxDP=5.62D-06 DE=-1.30D-09 OVMax= 4.64D-06

 Cycle  11  Pass 1  IDiag  3:
 E=-0.933389724355010     Delta-E=       -0.000000000061 Rises=F Damp=F
 DIIS: error= 6.85D-08 at cycle  11 NSaved=  11.
 NSaved=11 IEnMin=11 EnMin=-0.933389724355010     IErMin=11 ErrMin= 6.85D-08
 ErrMax= 6.85D-08  0.00D+00 EMaxC= 1.00D-01 BMatC= 2.87D-13 BMatP= 6.95D-12
 IDIUse=1 WtCom= 1.00D+00 WtEn= 0.00D+00
 Coeff-Com: -0.101D-04 0.373D-04-0.571D-04-0.487D-03 0.478D-02-0.135D-01
 Coeff-Com:  0.369D-01-0.158D+00 0.351D+00-0.785D+00 0.157D+01
 Coeff:     -0.101D-04 0.373D-04-0.571D-04-0.487D-03 0.478D-02-0.135D-01
 Coeff:      0.369D-01-0.158D+00 0.351D+00-0.785D+00 0.157D+01
 Gap=     0.415 Goal=   None    Shift=    0.000
 RMSDP=1.06D-07 MaxDP=5.81D-07 DE=-6.10D-11 OVMax= 7.59D-07

 Cycle  12  Pass 1  IDiag  3:
 E=-0.933389724357056     Delta-E=       -0.000000000002 Rises=F Damp=F
 DIIS: error= 1.13D-08 at cycle  12 NSaved=  12.
 NSaved=12 IEnMin=12 EnMin=-0.933389724357056     IErMin=12 ErrMin= 1.13D-08
 ErrMax= 1.13D-08  0.00D+00 EMaxC= 1.00D-01 BMatC= 1.08D-14 BMatP= 2.87D-13
 IDIUse=1 WtCom= 1.00D+00 WtEn= 0.00D+00
 Coeff-Com:  0.238D-05-0.870D-05 0.104D-04 0.193D-03-0.181D-02 0.516D-02
 Coeff-Com: -0.152D-01 0.705D-01-0.162D+00 0.377D+00-0.867D+00 0.159D+01
 Coeff:      0.238D-05-0.870D-05 0.104D-04 0.193D-03-0.181D-02 0.516D-02
 Coeff:     -0.152D-01 0.705D-01-0.162D+00 0.377D+00-0.867D+00 0.159D+01
 Gap=     0.415 Goal=   None    Shift=    0.000
 RMSDP=2.13D-08 MaxDP=1.04D-07 DE=-2.05D-12 OVMax= 1.70D-07

 Cycle  13  Pass 1  IDiag  3:
 E=-0.933389724357255     Delta-E=        0.000000000000 Rises=F Damp=F
 DIIS: error= 1.65D-09 at cycle  13 NSaved=  13.
 NSaved=13 IEnMin=13 EnMin=-0.933389724357255     IErMin=13 ErrMin= 1.65D-09
 ErrMax= 1.65D-09  0.00D+00 EMaxC= 1.00D-01 BMatC= 1.72D-16 BMatP= 1.08D-14
 IDIUse=1 WtCom= 1.00D+00 WtEn= 0.00D+00
 Coeff-Com: -0.204D-06 0.718D-06 0.772D-06-0.607D-04 0.519D-03-0.146D-02
 Coeff-Com:  0.440D-02-0.209D-01 0.484D-01-0.114D+00 0.268D+00-0.565D+00
 Coeff-Com:  0.138D+01
 Coeff:     -0.204D-06 0.718D-06 0.772D-06-0.607D-04 0.519D-03-0.146D-02
 Coeff:      0.440D-02-0.209D-01 0.484D-01-0.114D+00 0.268D+00-0.565D+00
 Coeff:      0.138D+01
 Gap=     0.415 Goal=   None    Shift=    0.000
 RMSDP=2.17D-09 MaxDP=1.14D-08 DE=-1.99D-13 OVMax= 1.72D-08

 Cycle  14  Pass 2  IDiag  1:
 SCF Done:  E(RAM1) = -0.933389724357     A.U. after   14 cycles
            NFock= 13  Conv=0.22D-08     -V/T= 0.9370
 KE=-1.481841608912D+01 PE=-1.554636489815D+02 EE= 7.792553094041D+01
 Leave Link  502 at Fri Mar 25 08:56:40 2016, MaxMem=    33554432 cpu:         0.0
 (Enter /opt/g09/g09/l701.exe)
 Compute integral first derivatives.
 ... and contract with generalized density number  0.
 Leave Link  701 at Fri Mar 25 08:56:40 2016, MaxMem=    33554432 cpu:         0.0
 (Enter /opt/g09/g09/l702.exe)
 L702 exits ... SP integral derivatives will be done elsewhere.
 Leave Link  702 at Fri Mar 25 08:56:40 2016, MaxMem=    33554432 cpu:         0.0
 (Enter /opt/g09/g09/l703.exe)
 Compute integral first derivatives, UseDBF=F ICtDFT=           0.
 Integral derivatives from FoFJK, PRISM(SPDF).
 Calling FoFJK, ICntrl=      2127 FMM=F ISym2X=0 I1Cent= 0 IOpClX= 0 NMat=1 NMatS=1 NMatT=0.
 FoFJK:  IHMeth= 8 ICntrl=    2127 DoSepK=F KAlg= 0 I1Cent=   0 FoldK=F
 IRaf=         0 NMat=   1 IRICut=       1 DoRegI=T DoRafI=F ISym2E= 0.
 FoFCou: FMM=F IPFlag=           0 FMFlag=      100000 FMFlg1=         800
         NFxFlg=           0 DoJE=F BraDBF=F KetDBF=F FulRan=T
         wScrn=  0.000000 ICntrl=    2127 IOpCl=  0 I1Cent=           0 NGrid=           0
         NMat0=    1 NMatS0=      1 NMatT0=    0 NMatD0=    1 NMtDS0=    0 NMtDT0=    0
 Symmetry not used in FoFCou.
 Leave Link  703 at Fri Mar 25 08:56:40 2016, MaxMem=    33554432 cpu:         0.0
 (Enter /opt/g09/g09/l716.exe)
 Dipole        =-5.16206381D-01-1.12930567D-02 3.97545685D-02
 ***** Axes restored to original set *****
 -------------------------------------------------------------------
 Center     Atomic                   Forces (Hartrees/Bohr)
 Number     Number              X              Y              Z
 -------------------------------------------------------------------
      1        6          -0.002145371   -0.005651361   -0.012473063
      2        6           0.006174814    0.011649317    0.016291791
      3        6           0.013866115   -0.002464565    0.007607591
      4        6          -0.011022900    0.008271225   -0.000603096
      5        1          -0.001327527   -0.002568674   -0.002438963
      6        1          -0.003564633   -0.001056608   -0.000973884
      7        1          -0.003746530   -0.004812368   -0.005927308
      8        1          -0.000542475   -0.000345971    0.005013721
      9       16           0.002308507   -0.003020995   -0.006496789
 -------------------------------------------------------------------
 Cartesian Forces:  Max     0.016291791 RMS     0.006835363
 Leave Link  716 at Fri Mar 25 08:56:40 2016, MaxMem=    33554432 cpu:         0.0
 (Enter /opt/g09/g09/l103.exe)

 GradGradGradGradGradGradGradGradGradGradGradGradGradGradGradGradGradGrad
 Berny optimization.
 Using GEDIIS/GDIIS optimizer.
 FormGI is forming the generalized inverse of G from B-inverse, IUseBI=4.
 Internal  Forces:  Max     0.010128532 RMS     0.003158645
 Search for a local minimum.
 Step number   2 out of a maximum of   48
 All quantities printed in internal units (Hartrees-Bohrs-Radians)
 RMS Force = .31586D-02 SwitMx=.10000D-02 MixMth= 1
 Mixed Optimization -- RFO/linear search
 Update second derivatives using D2CorX and points    1    2
 DE= -1.38D-02 DEPred=-2.19D-02 R= 6.33D-01
 TightC=F SS=  1.41D+00  RLast= 6.77D-01 DXNew= 5.0454D-01 2.0320D+00
 Trust test= 6.33D-01 RLast= 6.77D-01 DXMaxT set to 5.05D-01
 ITU=  1  0
 Use linear search instead of GDIIS.
     Eigenvalues ---    0.01538   0.01737   0.01939   0.02155   0.02416
     Eigenvalues ---    0.05099   0.14417   0.15783   0.15895   0.15988
     Eigenvalues ---    0.20197   0.22155   0.24124   0.27556   0.34260
     Eigenvalues ---    0.36815   0.37777   0.38805   0.39773   0.46702
     Eigenvalues ---    0.55493
 RFO step:  Lambda=-5.01323602D-03 EMin= 1.53829116D-02
 Quartic linear search produced a step of -0.04613.
 Iteration  1 RMS(Cart)=  0.03304388 RMS(Int)=  0.00610254
 Iteration  2 RMS(Cart)=  0.00315321 RMS(Int)=  0.00289531
 Iteration  3 RMS(Cart)=  0.00001656 RMS(Int)=  0.00289521
 Iteration  4 RMS(Cart)=  0.00000008 RMS(Int)=  0.00289521
 ITry= 1 IFail=0 DXMaxC= 1.22D-01 DCOld= 1.00D+10 DXMaxT= 5.05D-01 DXLimC= 3.00D+00 Rises=F
 Variable       Old X    -DE/DX   Delta X   Delta X   Delta X     New X
                                 (Linear)    (Quad)   (Total)
    R1        2.55844  -0.00575   0.00169  -0.02255  -0.01981   2.53863
    R2        2.73973   0.00338  -0.00128   0.01620   0.01513   2.75486
    R3        2.05158  -0.00078  -0.00184   0.01083   0.00899   2.06057
    R4        2.01650   0.00512  -0.00171   0.02377   0.02206   2.03855
    R5        3.41590  -0.00498   0.00147  -0.02839  -0.02633   3.38957
    R6        2.56871  -0.01013  -0.00139  -0.00744  -0.00970   2.55901
    R7        2.03256  -0.00016  -0.00084   0.00541   0.00458   2.03714
    R8        3.38909  -0.00072  -0.00156   0.00882   0.00637   3.39546
    R9        2.05283  -0.00260   0.00061  -0.01130  -0.01069   2.04214
    A1        1.99218  -0.00180   0.00149  -0.01941  -0.01894   1.97324
    A2        2.16994   0.00058  -0.00107   0.01394   0.00909   2.17904
    A3        2.11494   0.00147  -0.00138   0.02089   0.01572   2.13066
    A4        2.25441   0.00264   0.00080   0.02485   0.01566   2.27007
    A5        1.94127   0.00115  -0.00369   0.03670   0.02613   1.96741
    A6        2.07354  -0.00277   0.00296  -0.02299  -0.02969   2.04385
    A7        2.22943   0.00400  -0.00148   0.03330   0.03194   2.26136
    A8        1.95754  -0.00016  -0.00177   0.00828   0.00476   1.96230
    A9        2.09459  -0.00362   0.00248  -0.03785  -0.03522   2.05937
   A10        1.97079   0.00125   0.00030  -0.00234  -0.00230   1.96849
   A11        2.15037  -0.00213   0.00023  -0.01357  -0.01326   2.13711
   A12        2.16170   0.00088  -0.00171   0.01729   0.01569   2.17739
   A13        1.56030  -0.00008   0.00179  -0.01364  -0.01193   1.54837
    D1       -3.00515  -0.00292   0.00046  -0.10031  -0.10221  -3.10737
    D2       -0.04743   0.00339   0.00111   0.14903   0.15007   0.10264
    D3        0.25427  -0.00538   0.00650  -0.24942  -0.24388   0.01039
    D4       -3.07119   0.00093   0.00715  -0.00008   0.00840  -3.06279
    D5        0.00049  -0.00036   0.00991  -0.08744  -0.07647  -0.07599
    D6        3.11564  -0.00025   0.00008  -0.03097  -0.02988   3.08577
    D7        3.02836   0.00195   0.00411   0.05607   0.06033   3.08869
    D8       -0.13967   0.00207  -0.00573   0.11253   0.10693  -0.03274
    D9        0.06099  -0.00417  -0.00828  -0.13195  -0.14043  -0.07944
   D10        3.04010   0.00200  -0.00787   0.09323   0.08086   3.12096
   D11        3.12689   0.00092  -0.00381   0.05007   0.04739  -3.10891
   D12        0.01193   0.00086   0.00580  -0.00627   0.00004   0.01198
   D13        0.04738  -0.00297  -0.01587  -0.01938  -0.03404   0.01333
   D14       -3.06758  -0.00303  -0.00627  -0.07572  -0.08139   3.13422
   D15       -0.06133   0.00404   0.01391   0.08476   0.09651   0.03518
   D16        3.13695   0.00018   0.00241   0.01865   0.02293  -3.12331
         Item               Value     Threshold  Converged?
 Maximum Force            0.010129     0.000450     NO 
 RMS     Force            0.003159     0.000300     NO 
 Maximum Displacement     0.121975     0.001800     NO 
 RMS     Displacement     0.033918     0.001200     NO 
 Predicted change in Energy=-2.993895D-03
 Lowest energy point so far.  Saving SCF results.
 GradGradGradGradGradGradGradGradGradGradGradGradGradGradGradGradGradGrad

 Leave Link  103 at Fri Mar 25 08:56:40 2016, MaxMem=    33554432 cpu:         0.0
 (Enter /opt/g09/g09/l202.exe)
                          Input orientation:                          
 ---------------------------------------------------------------------
 Center     Atomic      Atomic             Coordinates (Angstroms)
 Number     Number       Type             X           Y           Z
 ---------------------------------------------------------------------
      1          6           0        0.892348   -0.700406   -0.045470
      2          6           0       -0.342098   -1.225593    0.025299
      3          6           0       -0.349074    1.284609    0.036338
      4          6           0        0.897536    0.756118    0.015438
      5          1           0        1.811375    1.332896    0.022033
      6          1           0       -0.656772    2.317651    0.052058
      7          1           0       -0.658474   -2.256876    0.034055
      8          1           0        1.812967   -1.280252   -0.117729
      9         16           0       -1.628885    0.023828    0.004550
 ---------------------------------------------------------------------
                    Distance matrix (angstroms):
                    1          2          3          4          5
     1  C    0.000000
     2  C    1.343386   0.000000
     3  C    2.342670   2.510235   0.000000
     4  C    1.457807   2.337513   1.354170   0.000000
     5  H    2.232372   3.344147   2.161036   1.080656   0.000000
     6  H    3.393811   3.557290   1.078008   2.203543   2.657517
     7  H    2.198629   1.078756   3.554975   3.391113   4.357380
     8  H    1.090405   2.160498   3.358076   2.236639   2.616883
     9  S    2.623667   1.793684   1.796801   2.630432   3.680944
                    6          7          8          9
     6  H    0.000000
     7  H    4.574563   0.000000
     8  H    4.367304   2.661739   0.000000
     9  S    2.491764   2.478745   3.682651   0.000000
 Stoichiometry    C4H4S
 Framework group  C1[X(C4H4S)]
 Deg. of freedom    21
 Full point group                 C1      NOp   1
 RotChk:  IX=1 Diff= 2.12D-02
 Largest Abelian subgroup         C1      NOp   1
 Largest concise Abelian subgroup C1      NOp   1
                         Standard orientation:                         
 ---------------------------------------------------------------------
 Center     Atomic      Atomic             Coordinates (Angstroms)
 Number     Number       Type             X           Y           Z
 ---------------------------------------------------------------------
      1          6           0       -1.280933    0.731081   -0.027778
      2          6           0       -0.044498    1.252169    0.038416
      3          6           0       -0.043878   -1.257932    0.012527
      4          6           0       -1.289269   -0.726165    0.011786
      5          1           0       -2.204480   -1.300755    0.018998
      6          1           0        0.261299   -2.291839    0.010016
      7          1           0        0.274604    2.282441    0.059167
      8          1           0       -2.200727    1.314162   -0.082358
      9         16           0        1.238798    0.000067   -0.013471
 ---------------------------------------------------------------------
 Rotational constants (GHZ):      7.8253888      5.1283363      3.0998274
 Leave Link  202 at Fri Mar 25 08:56:40 2016, MaxMem=    33554432 cpu:         0.0
 (Enter /opt/g09/g09/l301.exe)

 Semi-emprical parameters in input format:
 Method=8 CoreType=1 PeptideFC=0.0130054926 RIJScale=0.4887302135
 ****
 H       
 PQN=1 NValence=1 F0ss=0.4718180406 ZetaOverlap=1.2063753890 U=-0.4026844113
 Beta=-0.2375061252 CoreKO=1.1156935984 KON=0,0,0,1.0502004605 KON=1,0,1,0.9635810405
 KON=0,1,1,0.9330514775 KON=2,1,1,1.0163059844 EISol=-0.4188110042 EHeat=0.0830298228
 Alpha=1.5325669538
 GCore=0.0077972409,1.3730785483,2.0856466358
 GCore=0.0002914631,1.1111893878,3.4323667483
 GCore=-0.0013710866,0.6263466706,3.8061403854
 ****
 C       
 PQN=2,2 NValence=4 F0ss=0.4414293821 F0sp=0.4326790039 F0pp=0.3572497418 F2pp=0.2647976831
 G1sp=0.2634149259
 ZetaOverlap=1.7362973768,1.4000694049
 U=-1.8762342383,-1.4260254375
 Beta=-0.5795077006,-0.3444706868 DDN=0,1,0.7210584891 DDN=1,1,0.8450245162
 CoreKO=1.1744187079 KON=0,0,0,1.0278175134 KON=1,0,1,0.8693172390 KON=0,1,1,0.8629983758
 KON=2,1,1,0.6994472246 EISol=-4.4398989268 EHeat=0.2723305520 Alpha=1.4189169450
 DipHyp=1.4420340120
 GCore=0.0008728220,1.1251244275,2.8122930267
 GCore=0.0032623705,1.0881672798,3.9097056648
 GCore=-0.0012619178,1.3179203212,3.6583902124
 GCore=-0.0001042443,1.0588327379,4.7350277079
 ****
 S       
 PQN=3,3 NValence=6 F0ss=0.4504516255 F0sp=0.3278525659 F0pp=0.3178991935 F2pp=0.2783203788
 G1sp=0.2994566759
 ZetaOverlap=2.2203118665,1.5881872395,1.0271293280
 U=-2.2003585331,-1.8080890038
 Beta=-0.1918869010,-0.2888968783 DDN=0,1,0.9096756330 DDN=1,1,1.0465594377
 CoreKO=1.2688604297 KON=0,0,0,1.0039216616 KON=1,0,1,0.8467026664 KON=0,1,1,0.8718632047
 KON=2,1,1,0.7421927012 EISol=-7.0460287497 EHeat=0.1058151363 Alpha=1.2475155193
 DipHyp=1.8192465971
 GCore=-0.0427564146,1.1863026460,1.1122669290
 GCore=-0.0009262104,1.7337505786,3.0374147736
 GCore=0.0007715030,3.5545222057,4.4470906627
 ****
 
 Standard basis: VSTO-6G (5D, 7F)
 Ernie: Thresh=  0.10000D-02 Tol=  0.10000D-05 Strict=F.
  NNHCO=     0 NNPyr=     0 NCTC=     0               EPep=         0.000000000
    EC=        61.786520665  ECS=         1.535974104   EG=         0.166628439
   EHC=         0.000000000  EAt=       -26.480868474  AtH=         1.527256636
 EPDDG=         0.000000000  ECC=        63.489123207 EAtT=        28.008125109
 There are    24 symmetry adapted cartesian basis functions of A   symmetry.
 There are    24 symmetry adapted basis functions of A   symmetry.
    24 basis functions,   144 primitive gaussians,    24 cartesian basis functions
    13 alpha electrons       13 beta electrons
       nuclear repulsion energy        91.4972483165 Hartrees.
 IExCor=    0 DFT=F Ex=HF Corr=None ExCW=0 ScaHFX=  1.000000
 ScaDFX=  1.000000  1.000000  1.000000  1.000000 ScalE2=  1.000000  1.000000
 IRadAn=      0 IRanWt=     -1 IRanGd=            0 ICorTp=0 IEmpDi=  4
 Integral buffers will be    131072 words long.
 Regular integral format.
 Two-electron integral symmetry is turned off.
 Leave Link  301 at Fri Mar 25 08:56:40 2016, MaxMem=    33554432 cpu:         0.0
 (Enter /opt/g09/g09/l302.exe)
 Do NDO integrals.
 NPDir=0 NMtPBC=     1 NCelOv=     1 NCel=       1 NClECP=     1 NCelD=      1
         NCelK=      1 NCelE2=     1 NClLst=     1 CellRange=     0.0.
 One-electron integrals computed using PRISM.
 NBasis=    24 RedAO= F EigKep=  0.00D+00  NBF=    24
 NBsUse=    24 1.00D-04 EigRej=  0.00D+00 NBFU=    24
 Leave Link  302 at Fri Mar 25 08:56:40 2016, MaxMem=    33554432 cpu:         0.0
 (Enter /opt/g09/g09/l303.exe)
 DipDrv:  MaxL=1.
 Leave Link  303 at Fri Mar 25 08:56:40 2016, MaxMem=    33554432 cpu:         0.0
 (Enter /opt/g09/g09/l401.exe)
 Initial guess from the checkpoint file:  "freq.chk"
 B after Tr=     0.000000    0.000000    0.000000
         Rot=    1.000000   -0.000076   -0.000024   -0.000553 Ang=  -0.06 deg.
 Guess basis will be translated and rotated to current coordinates.
 JPrj=0 DoOrth=T DoCkMO=T.
 Leave Link  401 at Fri Mar 25 08:56:40 2016, MaxMem=    33554432 cpu:         0.0
 (Enter /opt/g09/g09/l502.exe)
 Closed shell SCF:
 Using DIIS extrapolation, IDIIS=  1040.
 Overlap will be assumed to be unity.
 Two-electron integral symmetry not used.
 Keep J ints in memory in canonical form, NReq=888082.
 IVT=       79475 IEndB=       79475 NGot=    33554432 MDV=    33473473
 LenX=    33473473 LenY=    33472456
 Requested convergence on RMS density matrix=1.00D-08 within 128 cycles.
 Requested convergence on MAX density matrix=1.00D-06.
 Requested convergence on             energy=1.00D-06.
 No special actions if energy rises.
 FoFCou: FMM=F IPFlag=           0 FMFlag=           0 FMFlg1=           0
         NFxFlg=           0 DoJE=F BraDBF=F KetDBF=F FulRan=T
         wScrn=  0.000000 ICntrl=     600 IOpCl=  2 I1Cent=           0 NGrid=           0
         NMat0=    1 NMatS0=     54 NMatT0=    0 NMatD0=    1 NMtDS0=    0 NMtDT0=    0
 Symmetry not used in FoFCou.

 Cycle   1  Pass 1  IDiag  1:
 E=-0.924248396003577    
 DIIS: error= 1.34D-02 at cycle   1 NSaved=   1.
 NSaved= 1 IEnMin= 1 EnMin=-0.924248396003577     IErMin= 1 ErrMin= 1.34D-02
 ErrMax= 1.34D-02  0.00D+00 EMaxC= 1.00D-01 BMatC= 2.92D-03 BMatP= 2.92D-03
 IDIUse=3 WtCom= 8.66D-01 WtEn= 1.34D-01
 Coeff-Com:  0.100D+01
 Coeff-En:   0.100D+01
 Coeff:      0.100D+01
 GapD=    2.000 DampG=2.000 DampE=0.500 DampFc=1.0000 IDamp=-1.
 RMSDP=3.68D-03 MaxDP=2.49D-02              OVMax= 0.00D+00

 Cycle   2  Pass 1  IDiag  3:
 E=-0.932964391082351     Delta-E=       -0.008715995079 Rises=F Damp=F
 DIIS: error= 4.47D-03 at cycle   2 NSaved=   2.
 NSaved= 2 IEnMin= 2 EnMin=-0.932964391082351     IErMin= 2 ErrMin= 4.47D-03
 ErrMax= 4.47D-03  0.00D+00 EMaxC= 1.00D-01 BMatC= 3.56D-04 BMatP= 2.92D-03
 IDIUse=3 WtCom= 9.55D-01 WtEn= 4.47D-02
 Coeff-Com: -0.473D+00 0.147D+01
 Coeff-En:   0.000D+00 0.100D+01
 Coeff:     -0.452D+00 0.145D+01
 Gap=     0.418 Goal=   None    Shift=    0.000
 RMSDP=2.17D-03 MaxDP=1.26D-02 DE=-8.72D-03 OVMax= 1.54D-02

 Cycle   3  Pass 1  IDiag  3:
 E=-0.934483450416821     Delta-E=       -0.001519059334 Rises=F Damp=F
 DIIS: error= 4.61D-04 at cycle   3 NSaved=   3.
 NSaved= 3 IEnMin= 3 EnMin=-0.934483450416821     IErMin= 3 ErrMin= 4.61D-04
 ErrMax= 4.61D-04  0.00D+00 EMaxC= 1.00D-01 BMatC= 9.18D-06 BMatP= 3.56D-04
 IDIUse=3 WtCom= 9.95D-01 WtEn= 4.61D-03
 Coeff-Com:  0.190D+00-0.687D+00 0.150D+01
 Coeff-En:   0.000D+00 0.000D+00 0.100D+01
 Coeff:      0.189D+00-0.684D+00 0.150D+01
 Gap=     0.418 Goal=   None    Shift=    0.000
 RMSDP=4.91D-04 MaxDP=2.92D-03 DE=-1.52D-03 OVMax= 4.65D-03

 Cycle   4  Pass 1  IDiag  3:
 E=-0.934537884946181     Delta-E=       -0.000054434529 Rises=F Damp=F
 DIIS: error= 7.43D-05 at cycle   4 NSaved=   4.
 NSaved= 4 IEnMin= 4 EnMin=-0.934537884946181     IErMin= 4 ErrMin= 7.43D-05
 ErrMax= 7.43D-05  0.00D+00 EMaxC= 1.00D-01 BMatC= 3.38D-07 BMatP= 9.18D-06
 IDIUse=1 WtCom= 1.00D+00 WtEn= 0.00D+00
 Coeff-Com: -0.103D+00 0.377D+00-0.892D+00 0.162D+01
 Coeff:     -0.103D+00 0.377D+00-0.892D+00 0.162D+01
 Gap=     0.418 Goal=   None    Shift=    0.000
 RMSDP=9.91D-05 MaxDP=5.92D-04 DE=-5.44D-05 OVMax= 9.53D-04

 Cycle   5  Pass 1  IDiag  3:
 E=-0.934540253438598     Delta-E=       -0.000002368492 Rises=F Damp=F
 DIIS: error= 3.80D-05 at cycle   5 NSaved=   5.
 NSaved= 5 IEnMin= 5 EnMin=-0.934540253438598     IErMin= 5 ErrMin= 3.80D-05
 ErrMax= 3.80D-05  0.00D+00 EMaxC= 1.00D-01 BMatC= 5.09D-08 BMatP= 3.38D-07
 IDIUse=1 WtCom= 1.00D+00 WtEn= 0.00D+00
 Coeff-Com:  0.460D-01-0.169D+00 0.412D+00-0.995D+00 0.171D+01
 Coeff:      0.460D-01-0.169D+00 0.412D+00-0.995D+00 0.171D+01
 Gap=     0.418 Goal=   None    Shift=    0.000
 RMSDP=4.03D-05 MaxDP=2.93D-04 DE=-2.37D-06 OVMax= 2.01D-04

 Cycle   6  Pass 1  IDiag  3:
 E=-0.934540649819013     Delta-E=       -0.000000396380 Rises=F Damp=F
 DIIS: error= 1.79D-05 at cycle   6 NSaved=   6.
 NSaved= 6 IEnMin= 6 EnMin=-0.934540649819013     IErMin= 6 ErrMin= 1.79D-05
 ErrMax= 1.79D-05  0.00D+00 EMaxC= 1.00D-01 BMatC= 1.05D-08 BMatP= 5.09D-08
 IDIUse=1 WtCom= 1.00D+00 WtEn= 0.00D+00
 Coeff-Com: -0.119D-01 0.439D-01-0.112D+00 0.385D+00-0.122D+01 0.192D+01
 Coeff:     -0.119D-01 0.439D-01-0.112D+00 0.385D+00-0.122D+01 0.192D+01
 Gap=     0.418 Goal=   None    Shift=    0.000
 RMSDP=2.38D-05 MaxDP=1.88D-04 DE=-3.96D-07 OVMax= 1.35D-04

 Cycle   7  Pass 1  IDiag  3:
 E=-0.934540748269015     Delta-E=       -0.000000098450 Rises=F Damp=F
 DIIS: error= 5.35D-06 at cycle   7 NSaved=   7.
 NSaved= 7 IEnMin= 7 EnMin=-0.934540748269015     IErMin= 7 ErrMin= 5.35D-06
 ErrMax= 5.35D-06  0.00D+00 EMaxC= 1.00D-01 BMatC= 1.16D-09 BMatP= 1.05D-08
 IDIUse=1 WtCom= 1.00D+00 WtEn= 0.00D+00
 Coeff-Com:  0.879D-03-0.325D-02 0.106D-01-0.899D-01 0.473D+00-0.111D+01
 Coeff-Com:  0.172D+01
 Coeff:      0.879D-03-0.325D-02 0.106D-01-0.899D-01 0.473D+00-0.111D+01
 Coeff:      0.172D+01
 Gap=     0.418 Goal=   None    Shift=    0.000
 RMSDP=8.19D-06 MaxDP=6.37D-05 DE=-9.85D-08 OVMax= 6.16D-05

 Cycle   8  Pass 1  IDiag  3:
 E=-0.934540758804758     Delta-E=       -0.000000010536 Rises=F Damp=F
 DIIS: error= 2.24D-06 at cycle   8 NSaved=   8.
 NSaved= 8 IEnMin= 8 EnMin=-0.934540758804758     IErMin= 8 ErrMin= 2.24D-06
 ErrMax= 2.24D-06  0.00D+00 EMaxC= 1.00D-01 BMatC= 1.59D-10 BMatP= 1.16D-09
 IDIUse=1 WtCom= 1.00D+00 WtEn= 0.00D+00
 Coeff-Com:  0.883D-03-0.322D-02 0.550D-02 0.409D-01-0.332D+00 0.891D+00
 Coeff-Com: -0.165D+01 0.205D+01
 Coeff:      0.883D-03-0.322D-02 0.550D-02 0.409D-01-0.332D+00 0.891D+00
 Coeff:     -0.165D+01 0.205D+01
 Gap=     0.418 Goal=   None    Shift=    0.000
 RMSDP=2.75D-06 MaxDP=2.18D-05 DE=-1.05D-08 OVMax= 2.42D-05

 Cycle   9  Pass 1  IDiag  3:
 E=-0.934540760275425     Delta-E=       -0.000000001471 Rises=F Damp=F
 DIIS: error= 9.71D-07 at cycle   9 NSaved=   9.
 NSaved= 9 IEnMin= 9 EnMin=-0.934540760275425     IErMin= 9 ErrMin= 9.71D-07
 ErrMax= 9.71D-07  0.00D+00 EMaxC= 1.00D-01 BMatC= 2.96D-11 BMatP= 1.59D-10
 IDIUse=1 WtCom= 1.00D+00 WtEn= 0.00D+00
 Coeff-Com: -0.625D-03 0.227D-02-0.370D-02-0.325D-01 0.258D+00-0.693D+00
 Coeff-Com:  0.133D+01-0.212D+01 0.226D+01
 Coeff:     -0.625D-03 0.227D-02-0.370D-02-0.325D-01 0.258D+00-0.693D+00
 Coeff:      0.133D+01-0.212D+01 0.226D+01
 Gap=     0.418 Goal=   None    Shift=    0.000
 RMSDP=1.59D-06 MaxDP=1.32D-05 DE=-1.47D-09 OVMax= 1.15D-05

 Cycle  10  Pass 1  IDiag  3:
 E=-0.934540760577491     Delta-E=       -0.000000000302 Rises=F Damp=F
 DIIS: error= 1.02D-07 at cycle  10 NSaved=  10.
 NSaved=10 IEnMin=10 EnMin=-0.934540760577491     IErMin=10 ErrMin= 1.02D-07
 ErrMax= 1.02D-07  0.00D+00 EMaxC= 1.00D-01 BMatC= 8.18D-13 BMatP= 2.96D-11
 IDIUse=1 WtCom= 1.00D+00 WtEn= 0.00D+00
 Coeff-Com:  0.226D-03-0.826D-03 0.138D-02 0.113D-01-0.913D-01 0.246D+00
 Coeff-Com: -0.477D+00 0.784D+00-0.958D+00 0.148D+01
 Coeff:      0.226D-03-0.826D-03 0.138D-02 0.113D-01-0.913D-01 0.246D+00
 Coeff:     -0.477D+00 0.784D+00-0.958D+00 0.148D+01
 Gap=     0.418 Goal=   None    Shift=    0.000
 RMSDP=2.01D-07 MaxDP=1.49D-06 DE=-3.02D-10 OVMax= 1.09D-06

 Cycle  11  Pass 1  IDiag  3:
 E=-0.934540760583658     Delta-E=       -0.000000000006 Rises=F Damp=F
 DIIS: error= 3.14D-08 at cycle  11 NSaved=  11.
 NSaved=11 IEnMin=11 EnMin=-0.934540760583658     IErMin=11 ErrMin= 3.14D-08
 ErrMax= 3.14D-08  0.00D+00 EMaxC= 1.00D-01 BMatC= 4.02D-14 BMatP= 8.18D-13
 IDIUse=1 WtCom= 1.00D+00 WtEn= 0.00D+00
 Coeff-Com: -0.646D-04 0.235D-03-0.341D-03-0.460D-02 0.348D-01-0.926D-01
 Coeff-Com:  0.178D+00-0.294D+00 0.370D+00-0.725D+00 0.153D+01
 Coeff:     -0.646D-04 0.235D-03-0.341D-03-0.460D-02 0.348D-01-0.926D-01
 Coeff:      0.178D+00-0.294D+00 0.370D+00-0.725D+00 0.153D+01
 Gap=     0.418 Goal=   None    Shift=    0.000
 RMSDP=3.77D-08 MaxDP=2.08D-07 DE=-6.17D-12 OVMax= 3.54D-07

 Cycle  12  Pass 1  IDiag  3:
 E=-0.934540760583886     Delta-E=        0.000000000000 Rises=F Damp=F
 DIIS: error= 5.93D-09 at cycle  12 NSaved=  12.
 NSaved=12 IEnMin=12 EnMin=-0.934540760583886     IErMin=12 ErrMin= 5.93D-09
 ErrMax= 5.93D-09  0.00D+00 EMaxC= 1.00D-01 BMatC= 1.72D-15 BMatP= 4.02D-14
 IDIUse=1 WtCom= 1.00D+00 WtEn= 0.00D+00
 Coeff-Com:  0.117D-04-0.423D-04 0.401D-04 0.138D-02-0.984D-02 0.258D-01
 Coeff-Com: -0.495D-01 0.814D-01-0.103D+00 0.223D+00-0.623D+00 0.145D+01
 Coeff:      0.117D-04-0.423D-04 0.401D-04 0.138D-02-0.984D-02 0.258D-01
 Coeff:     -0.495D-01 0.814D-01-0.103D+00 0.223D+00-0.623D+00 0.145D+01
 Gap=     0.418 Goal=   None    Shift=    0.000
 RMSDP=7.83D-09 MaxDP=4.36D-08 DE=-2.27D-13 OVMax= 8.09D-08

 Cycle  13  Pass 2  IDiag  1:
 SCF Done:  E(RAM1) = -0.934540760584     A.U. after   13 cycles
            NFock= 12  Conv=0.78D-08     -V/T= 0.9370
 KE=-1.482587459431D+01 PE=-1.555901142063D+02 EE= 7.798419972351D+01
 Leave Link  502 at Fri Mar 25 08:56:40 2016, MaxMem=    33554432 cpu:         0.0
 (Enter /opt/g09/g09/l701.exe)
 Compute integral first derivatives.
 ... and contract with generalized density number  0.
 Leave Link  701 at Fri Mar 25 08:56:40 2016, MaxMem=    33554432 cpu:         0.0
 (Enter /opt/g09/g09/l702.exe)
 L702 exits ... SP integral derivatives will be done elsewhere.
 Leave Link  702 at Fri Mar 25 08:56:40 2016, MaxMem=    33554432 cpu:         0.0
 (Enter /opt/g09/g09/l703.exe)
 Compute integral first derivatives, UseDBF=F ICtDFT=           0.
 Integral derivatives from FoFJK, PRISM(SPDF).
 Calling FoFJK, ICntrl=      2127 FMM=F ISym2X=0 I1Cent= 0 IOpClX= 0 NMat=1 NMatS=1 NMatT=0.
 FoFJK:  IHMeth= 8 ICntrl=    2127 DoSepK=F KAlg= 0 I1Cent=   0 FoldK=F
 IRaf=         0 NMat=   1 IRICut=       1 DoRegI=T DoRafI=F ISym2E= 0.
 FoFCou: FMM=F IPFlag=           0 FMFlag=      100000 FMFlg1=         800
         NFxFlg=           0 DoJE=F BraDBF=F KetDBF=F FulRan=T
         wScrn=  0.000000 ICntrl=    2127 IOpCl=  0 I1Cent=           0 NGrid=           0
         NMat0=    1 NMatS0=      1 NMatT0=    0 NMatD0=    1 NMtDS0=    0 NMtDT0=    0
 Symmetry not used in FoFCou.
 Leave Link  703 at Fri Mar 25 08:56:40 2016, MaxMem=    33554432 cpu:         0.0
 (Enter /opt/g09/g09/l716.exe)
 Dipole        =-5.24229142D-01 5.71733238D-03-9.33882105D-03
 ***** Axes restored to original set *****
 -------------------------------------------------------------------
 Center     Atomic                   Forces (Hartrees/Bohr)
 Number     Number              X              Y              Z
 -------------------------------------------------------------------
      1        6           0.008166145    0.000844723    0.008620106
      2        6          -0.003178993   -0.009374967   -0.010003681
      3        6           0.007743614    0.002428997   -0.002211749
      4        6          -0.009749869    0.000798815   -0.005434705
      5        1           0.001323996    0.000281229    0.000097039
      6        1          -0.000461883   -0.001908029    0.000778021
      7        1           0.000183818    0.001590137   -0.000319242
      8        1          -0.003712955    0.002884701    0.002047190
      9       16          -0.000313872    0.002454394    0.006427021
 -------------------------------------------------------------------
 Cartesian Forces:  Max     0.010003681 RMS     0.004786004
 Leave Link  716 at Fri Mar 25 08:56:40 2016, MaxMem=    33554432 cpu:         0.0
 (Enter /opt/g09/g09/l103.exe)

 GradGradGradGradGradGradGradGradGradGradGradGradGradGradGradGradGradGrad
[...]
     31  0.441341D-04 -0.204661D-05 -0.367599D-04  0.000000D+00 -0.173884D-04
     32  0.163844D-04  0.000000D+00  0.281180D-05  0.000000D+00  0.000000D+00
     33 -0.661972D-04 -0.119888D-05  0.394813D-04  0.000000D+00  0.325499D-04
     34 -0.212794D-04  0.182090D-05 -0.971893D-05  0.151658D-05  0.514715D-05
     35 -0.192602D-04 -0.744497D-05 -0.966747D-05 -0.397706D-05  0.733906D-05
     36  0.256576D-04 -0.442519D-05 -0.588677D-04 -0.214103D-05 -0.200637D-04
     37 -0.126292D-04  0.558256D-05  0.261931D-04  0.234715D-05  0.507786D-05
     38  0.381600D-05 -0.550083D-05 -0.104351D-04  0.000000D+00 -0.152789D-04
               11            12            13            14            15 
     11  0.616238D-01
     12 -0.294206D-01  0.597735D-01
     13 -0.759656D-02 -0.467180D-02  0.600226D-01
     14  0.139453D-01  0.129690D-01 -0.378275D-01  0.743377D-01
     15 -0.634875D-02 -0.829721D-02 -0.221951D-01 -0.365102D-01  0.587053D-01
     16 -0.519831D-02  0.551142D-03  0.568659D-03 -0.183922D-02  0.127056D-02
     17  0.118695D-01  0.299516D-02 -0.184739D-02  0.819441D-02 -0.634701D-02
     18 -0.667119D-02 -0.354632D-02  0.127874D-02 -0.635519D-02  0.507645D-02
     19  0.134727D-01  0.130742D-01  0.463522D-02 -0.148256D-01  0.101904D-01
     20 -0.582504D-02 -0.725844D-02  0.563013D-03  0.296748D-02 -0.353049D-02
     21 -0.764763D-02 -0.581576D-02 -0.519824D-02  0.118581D-01 -0.665990D-02
     22 -0.708426D-02  0.131456D-02  0.227713D-01 -0.407922D-01  0.180208D-01
     23  0.833916D-05 -0.148020D-04  0.804390D-05 -0.175561D-04  0.894293D-05
     24 -0.810782D-05 -0.198444D-04  0.198310D-04 -0.251953D-04  0.648200D-05
     25 -0.113051D-04 -0.618071D-05  0.112765D-04 -0.218251D-04  0.941973D-05
     26 -0.277521D-04 -0.112231D-04  0.230637D-04 -0.294643D-04  0.695880D-05
     27  0.733387D-05  0.171120D-04 -0.134650D-04  0.209054D-04 -0.820060D-05
     28  0.191538D-05 -0.503272D-05 -0.487409D-05  0.888004D-05 -0.453205D-05
     29  0.000000D+00  0.337200D-04 -0.155193D-04  0.242479D-04 -0.895029D-05
     30 -0.574477D-05  0.115753D-04 -0.692839D-05  0.122226D-04 -0.528174D-05
     31  0.533396D-05  0.136512D-04 -0.163817D-04  0.183809D-04 -0.291782D-05
     32 -0.898185D-05  0.937998D-05  0.000000D+00  0.105664D-04 -0.967871D-05
     33 -0.561548D-05 -0.270318D-04  0.114446D-04 -0.198692D-04  0.880806D-05
     34  0.000000D+00 -0.411738D-05  0.350519D-05 -0.897751D-05  0.561248D-05
     35 -0.263856D-05 -0.590098D-05  0.000000D+00 -0.595404D-05  0.560950D-05
     36  0.343038D-05  0.170134D-04 -0.756582D-05  0.493761D-05  0.241393D-05
     37 -0.125465D-05 -0.399279D-05  0.861254D-05 -0.634412D-05 -0.178394D-05
     38  0.221316D-05  0.119557D-04  0.000000D+00  0.400037D-05 -0.314473D-05
               16            17            18            19            20 
     16  0.600089D-01
     17 -0.377952D-01  0.742881D-01
     18 -0.222137D-01 -0.364928D-01  0.587065D-01
     19  0.122428D-01 -0.268664D-01  0.146236D-01  0.625128D-01
     20 -0.465949D-02  0.129417D-01 -0.828218D-02 -0.303360D-01  0.597682D-01
     21 -0.758332D-02  0.139247D-01 -0.634139D-02 -0.321769D-01 -0.294323D-01
     22  0.227444D-01 -0.407514D-01  0.180069D-01  0.572608D-02  0.134331D-02
     23  0.864096D-05 -0.226414D-04  0.103753D-04  0.163267D-04 -0.173832D-04
     24  0.198982D-05 -0.508818D-05  0.283448D-05 -0.912206D-05  0.175120D-05
     25 -0.338225D-05 -0.871493D-05  0.107748D-04 -0.360638D-05  0.000000D+00
     26 -0.100334D-04  0.883833D-05  0.323399D-05 -0.290551D-04  0.200268D-04
     27  0.170584D-05  0.707181D-05 -0.158757D-05  0.461280D-05  0.450151D-05
     28 -0.230828D-04  0.264576D-04 -0.128941D-05 -0.214044D-04  0.221019D-04
     29  0.150024D-04 -0.913344D-05  0.000000D+00  0.232025D-04 -0.132597D-04
     30 -0.978626D-05  0.102524D-04  0.000000D+00 -0.281462D-05  0.434073D-05
     31 -0.369443D-05  0.175329D-05 -0.265568D-05  0.796092D-05 -0.510101D-05
     32 -0.937346D-05  0.168583D-04 -0.921948D-05 -0.138269D-04  0.114100D-04
     33 -0.283232D-04  0.268598D-04  0.687124D-05 -0.285221D-04  0.453881D-05
     34 -0.195710D-05  0.627301D-05  0.639692D-05  0.000000D+00  0.000000D+00
     35 -0.502446D-05 -0.452839D-05 -0.102712D-05  0.165134D-05 -0.835591D-05
     36  0.213417D-04 -0.251152D-04 -0.150143D-05  0.296410D-04 -0.124036D-04
     37  0.512088D-05  0.140727D-05  0.216967D-05 -0.493750D-05  0.742105D-05
     38 -0.316314D-04 -0.130356D-04  0.397353D-04  0.180917D-04 -0.380257D-05
               21            22            23            24            25 
     21  0.616091D-01
     22 -0.706940D-02  0.700478D-01
     23  0.000000D+00  0.174278D-04 -0.369748D-03
     24  0.670579D-05  0.140165D-04 -0.686268D-02  0.588652D-02
     25  0.352726D-05  0.127464D-04 -0.442159D-03 -0.133181D-01  0.949133D-02
     26  0.923317D-05  0.933508D-05 -0.693510D-02 -0.568907D-03 -0.338462D-02
     27 -0.773208D-05 -0.105688D-04  0.436033D-02 -0.431130D-02  0.106384D-01
     28 -0.143079D-05 -0.180661D-04  0.460902D-02 -0.139190D-02  0.706858D-02
     29 -0.939787D-05 -0.356177D-05  0.443002D-02  0.190162D-02  0.107811D-02
     30 -0.309659D-05 -0.110591D-04  0.467870D-02  0.482103D-02 -0.249175D-02
     31 -0.295182D-05 -0.107486D-04  0.585095D-02 -0.462650D-02  0.986020D-02
     32  0.180684D-05 -0.126727D-04  0.322049D-03  0.622977D-02 -0.110399D-02
     33  0.239623D-04 -0.108937D-04 -0.407489D-02  0.299280D-03 -0.431925D-02
     34  0.221882D-05 -0.166940D-05 -0.433334D-02 -0.273469D-02 -0.609308D-03
     35  0.528489D-05  0.138559D-05  0.285374D-03  0.616670D-03 -0.272876D-02
     36 -0.164586D-04  0.106099D-04  0.269266D-04 -0.241730D-02  0.981187D-03
     37 -0.160300D-05  0.488159D-05 -0.336112D-02  0.216504D-02 -0.378690D-02
     38 -0.146010D-04  0.611037D-05  0.355968D-03  0.243562D-02 -0.243101D-02
               26            27            28            29            30 
     26  0.298156D-02
     27  0.196681D-02  0.571120D-02
     28  0.106767D-02 -0.356275D-03  0.286240D-02
     29 -0.145028D-02 -0.331071D-03 -0.272344D-02  0.289493D-02
     30 -0.234943D-02 -0.639854D-02  0.495234D-03  0.502554D-03  0.739633D-02
     31 -0.617239D-03  0.163509D-02  0.203856D-02 -0.222356D-02 -0.182009D-02
     32  0.480373D-02 -0.574902D-02 -0.307137D-02 -0.437655D-02 -0.169890D-02
     33  0.549161D-04  0.434518D-02  0.443722D-02  0.458036D-02  0.467240D-02
     34  0.989343D-03  0.106507D-01  0.109224D-02  0.706661D-02 -0.249190D-02
     35 -0.239746D-02 -0.430288D-02  0.192897D-02 -0.140198D-02  0.482988D-02
     36 -0.146304D-02  0.200269D-02 -0.141601D-02  0.108428D-02 -0.233442D-02
     37  0.173926D-02  0.162414D-02 -0.224117D-02  0.203393D-02 -0.183139D-02
     38 -0.351364D-03 -0.574826D-02 -0.437942D-02 -0.306597D-02 -0.169713D-02
               31            32            33            34            35 
     31  0.484010D-02
     32 -0.408171D-02  0.948863D-03
     33 -0.336925D-02  0.355469D-03 -0.348052D-03
     34 -0.378854D-02 -0.242725D-02 -0.443705D-03  0.948989D-02
     35  0.215969D-02  0.244180D-02 -0.685247D-02 -0.133289D-01  0.587289D-02
     36  0.174040D-02 -0.340921D-03 -0.694812D-02 -0.339527D-02 -0.603512D-03
     37 -0.390557D-02  0.800099D-03  0.584742D-02  0.986442D-02 -0.461413D-02
     38  0.807810D-03  0.257868D-02  0.302487D-03 -0.112007D-02  0.623414D-02
               36            37            38 
     36  0.294934D-02
     37 -0.597135D-03  0.483100D-02
     38  0.481158D-02 -0.408739D-02  0.969331D-03
 Leave Link  716 at Fri Mar 25 08:56:41 2016, MaxMem=    33554432 cpu:         0.0
 (Enter /opt/g09/g09/l103.exe)

 GradGradGradGradGradGradGradGradGradGradGradGradGradGradGradGradGradGrad
 Berny optimization.
 Red2BG is reusing G-inverse.
 Internal  Forces:  Max     0.039818506 RMS     0.011655264
 Search for a local minimum.
 Step number   1 out of a maximum of    2
 All quantities printed in internal units (Hartrees-Bohrs-Radians)
 Second derivative matrix not updated -- analytic derivatives used.
 ITU=  0
     Eigenvalues ---   -0.08518  -0.02891  -0.01279   0.01161   0.01777
     Eigenvalues ---    0.03740   0.04132   0.07013   0.07929   0.08630
     Eigenvalues ---    0.09131   0.14867   0.18314   0.26715   0.34367
     Eigenvalues ---    0.35700   0.37365   0.37742   0.38257   0.50744
     Eigenvalues ---    0.65705
 Eigenvalue     1 is  -8.52D-02 should be greater than     0.000000 Eigenvector:
                          R5        R8        R6        R1        A10
   1                   -0.62507   0.62466  -0.25846   0.25840  -0.16762
                          A1        A11       A3        A12       A2
   1                    0.16684   0.09587  -0.09562   0.07175  -0.07122
 Eigenvalue     2 is  -2.89D-02 should be greater than     0.000000 Eigenvector:
                          D1        D11       D5        D12       D3
   1                   -0.37328  -0.37284   0.32880  -0.29555  -0.29461
                          D6        D7        D13       D2        D16
   1                    0.25442   0.25308  -0.24829  -0.24764   0.20042
 Eigenvalue     3 is  -1.28D-02 should be greater than     0.000000 Eigenvector:
                          D10       D16       D3        D12       D9
   1                   -0.35327   0.35253   0.29996  -0.29912  -0.29870
                          D15       D1        D11       D4        D14
   1                    0.29849   0.29595  -0.29491   0.23588  -0.23573
 Angle between quadratic step and forces=  34.44 degrees.
 Linear search not attempted -- first point.
 Iteration  1 RMS(Cart)=  0.03714160 RMS(Int)=  0.00085409
 Iteration  2 RMS(Cart)=  0.00096256 RMS(Int)=  0.00015744
 Iteration  3 RMS(Cart)=  0.00000021 RMS(Int)=  0.00015744
 ITry= 1 IFail=0 DXMaxC= 9.10D-02 DCOld= 1.00D+10 DXMaxT= 3.00D-01 DXLimC= 3.00D+00 Rises=F
 Variable       Old X    -DE/DX   Delta X   Delta X   Delta X     New X
                                 (Linear)    (Quad)   (Total)
    R1        2.54497   0.03982   0.00000   0.09303   0.09312   2.63810
    R2        2.75502  -0.03953   0.00000  -0.13735  -0.13711   2.61792
    R3        2.04734  -0.00033   0.00000  -0.00224  -0.00224   2.04510
    R4        2.03188  -0.00016   0.00000   0.00187   0.00187   2.03375
    R5        3.40241  -0.00014   0.00000  -0.03083  -0.03100   3.37142
    R6        2.54569   0.03952   0.00000   0.09236   0.09245   2.63814
    R7        2.03214  -0.00028   0.00000   0.00161   0.00161   2.03375
    R8        3.40247  -0.00027   0.00000  -0.03087  -0.03103   3.37144
    R9        2.04744  -0.00037   0.00000  -0.00233  -0.00233   2.04511
    A1        1.97933  -0.00400   0.00000  -0.02213  -0.02178   1.95756
    A2        2.18106   0.00429   0.00000  -0.02328  -0.02346   2.15760
    A3        2.12279  -0.00029   0.00000   0.04542   0.04524   2.16803
    A4        2.28253  -0.00527   0.00000  -0.06988  -0.06986   2.21266
    A5        1.95480   0.00934   0.00000   0.04769   0.04765   2.00246
    A6        2.04585  -0.00407   0.00000   0.02219   0.02221   2.06807
    A7        2.28185  -0.00527   0.00000  -0.06929  -0.06928   2.21257
    A8        1.95440   0.00946   0.00000   0.04807   0.04804   2.00244
    A9        2.04693  -0.00419   0.00000   0.02122   0.02124   2.06817
   A10        1.97952  -0.00395   0.00000  -0.02235  -0.02199   1.95753
   A11        2.12254  -0.00029   0.00000   0.04572   0.04554   2.16808
   A12        2.18113   0.00424   0.00000  -0.02338  -0.02356   2.15757
   A13        1.55672  -0.01085   0.00000  -0.05128  -0.05193   1.50479
    D1       -3.14148  -0.00002   0.00000   0.00006   0.00007  -3.14141
    D2        0.00000  -0.00001   0.00000   0.00023   0.00022   0.00023
    D3       -0.00034   0.00000   0.00000   0.00037   0.00036   0.00002
    D4        3.14115   0.00000   0.00000   0.00054   0.00051  -3.14153
    D5       -0.00001   0.00003   0.00000   0.00051   0.00049   0.00048
    D6       -3.14137   0.00001   0.00000  -0.00009  -0.00012  -3.14149
    D7       -3.14117   0.00001   0.00000   0.00023   0.00022  -3.14095
    D8        0.00066  -0.00001   0.00000  -0.00037  -0.00039   0.00027
    D9        0.00001   0.00000   0.00000  -0.00064  -0.00064  -0.00063
   D10        3.14150   0.00000   0.00000  -0.00050  -0.00051   3.14100
   D11        3.14056  -0.00001   0.00000  -0.00055  -0.00056   3.14000
   D12       -0.00128   0.00001   0.00000   0.00008   0.00006  -0.00122
   D13        0.00002  -0.00003   0.00000  -0.00099  -0.00101  -0.00099
   D14        3.14136  -0.00001   0.00000  -0.00036  -0.00039   3.14097
   D15       -0.00001   0.00002   0.00000   0.00093   0.00092   0.00091
   D16       -3.14071   0.00000   0.00000   0.00061   0.00058  -3.14013
         Item               Value     Threshold  Converged?
 Maximum Force            0.039819     0.000450     NO 
 RMS     Force            0.011655     0.000300     NO 
 Maximum Displacement     0.091023     0.001800     NO 
 RMS     Displacement     0.037505     0.001200     NO 
 Predicted change in Energy=-7.379849D-03
 GradGradGradGradGradGradGradGradGradGradGradGradGradGradGradGradGradGrad

 Leave Link  103 at Fri Mar 25 08:56:41 2016, MaxMem=    33554432 cpu:         0.0
 (Enter /opt/g09/g09/l9999.exe)
 1\1\GINC-LINUX-CBNE\Freq\RAM1-Full\STO-3G\C4H4S1\DUSTIN\25-Mar-2016\0\
 \#P AM1(Input,Print) CIS(Singlets,NStates=10) pop(full) Geom=Checkpoin
 t freq\\best1\\0,1\C,0.8927358196,-0.700761904,-0.0259625968\C,-0.3428
 300072,-1.2360865624,-0.0032099988\C,-0.342859418,1.2919124595,0.03603
 38622\C,0.8928627415,0.7569587282,-0.0033263436\H,1.8153028431,1.32509
 13847,-0.0179029963\H,-0.6628387931,2.318267389,0.0608562116\H,-0.6638
 466429,-2.2622401543,-0.0109821252\H,1.8149058777,-1.2685432986,-0.057
 5667836\S,-1.6245094207,0.0273769579,0.0486327707\\Version=ES64L-G09Re
 vD.01\State=1-A\HF=-0.9357023\RMSD=3.506e-09\RMSF=1.902e-02\ZeroPoint=
 0.0611221\Thermal=0.0648776\Dipole=0.5363796,-0.0003257,-0.0129784\Dip
 oleDeriv=-0.2454791,0.4472262,0.0071499,0.0665556,0.2216909,0.0057934,
 0.0015598,-0.0044971,-0.2450297,1.007085,-0.9688746,-0.0457261,-0.0613
 967,0.0340821,0.0049771,-0.0312591,0.0280156,-0.1974389,1.0148193,0.96
 82932,-0.0155338,0.063031,0.0327218,0.0023111,-0.0297755,-0.020398,-0.
 1990889,-0.2478011,-0.4452727,-0.0066464,-0.0633752,0.2202771,0.008706
 6,-0.0017458,0.0178975,-0.2442114,0.0020976,-0.0855374,0.0043287,-0.09
 65067,0.1004976,0.0005182,0.0042987,0.0004402,0.225971,0.0115109,0.022
 9135,0.0063261,-0.0029146,0.0390457,-0.0031996,0.0061816,-0.0039287,0.
 2452698,0.0110907,-0.0230401,0.0055526,0.0029724,0.0387397,-0.0032623,
 0.0057773,-0.002624,0.2452201,0.002168,0.0855281,0.0068866,0.0964394,0
 .1008032,-0.0043222,0.0071471,-0.0036763,0.2256168,-1.5554928,-0.00123
 79,0.0376625,-0.0048051,-0.7878542,-0.0115222,0.0378157,-0.0112288,-0.
 056309\Polar=64.6931389,0.0451716,53.4432515,-1.408238,0.6950284,8.686
 2775\PG=C01 [X(C4H4S1)]\NImag=3\\0.82347275,-0.03660808,0.55658929,-0.
 01746572,0.00736042,0.14474893,-0.37995211,-0.03416855,0.00660972,0.42
 182967,-0.20297067,-0.12932600,0.00447446,0.21477911,0.61291991,0.0041
 7737,0.00025581,-0.08892645,-0.00440883,0.00230369,0.11600851,-0.01341
 669,0.00884473,0.00114884,0.16346581,-0.02708169,-0.00462100,0.4209631
 3,0.01460484,-0.04414402,-0.00142091,0.02663912,-0.02835020,-0.0010510
 8,-0.21340283,0.61288089,0.00113447,-0.00125900,0.02426726,-0.00384297
 ,0.00029417,-0.00482087,-0.01101474,0.01331463,0.11646490,-0.10083914,
 -0.05383193,-0.00058464,-0.01322061,-0.01445397,0.00073613,-0.37930126
 ,0.20230627,0.01046463,0.82272243,0.05379455,-0.31110525,-0.00477332,-
 0.00900569,-0.04433665,-0.00081157,0.03386411,-0.12903254,-0.00144273,
 0.03717136,0.55665748,0.00102469,-0.00201940,-0.09169617,0.00074665,-0
 .00071333,0.02428389,0.00797432,-0.00572609,-0.08921394,-0.01657272,0.
 00553339,0.14490381,0.00072679,-0.00486549,0.00045930,-0.00400549,0.00
 022622,0.00030072,-0.03171619,-0.01020389,0.00099973,-0.23888411,-0.12
 367081,0.00294039,0.27812235,-0.02759046,-0.02528544,-0.00001841,0.008
 02898,-0.00260386,-0.00035661,0.00311478,0.00518286,-0.00021832,-0.124
 44116,-0.11069271,0.00216824,0.14206745,0.12902137,0.00005595,-0.00068
 408,0.02217921,0.00053057,-0.00018746,0.00781598,0.00118143,0.00014372
 ,0.01395975,0.00288893,0.00217303,-0.04757998,-0.00458821,-0.00176770,
 0.01016120,-0.00908325,-0.00459919,-0.00008804,0.01160803,-0.00245293,
 -0.00035810,-0.06300523,0.07988772,0.00199177,-0.00890672,0.02935198,0
 .00140280,0.00091796,-0.00076989,0.00011810,0.07071547,-0.00191967,-0.
 00448706,0.00014980,0.00750121,-0.00413812,-0.00023094,0.08116232,-0.3
 1339402,-0.00657557,0.00931200,-0.01302720,-0.00088839,0.00028255,-0.0
 0016536,-0.00012378,-0.09745094,0.34498276,0.00001324,0.00020148,-0.00
 987987,-0.00022720,0.00003878,-0.00127365,0.00194656,-0.00654692,-0.03
 613881,0.00106951,-0.00143379,0.02729350,0.00014321,-0.00007511,0.0065
 1704,-0.00329727,0.00803562,0.00309734,-0.00891932,-0.02938412,0.00044
 949,-0.06317180,-0.08021644,-0.00055539,0.01160923,0.00245035,-0.00028
 681,-0.00907557,0.00459571,0.00004798,-0.00028674,-0.00115782,-0.00019
 057,0.00031840,0.00065716,0.00008488,0.07088006,-0.00934081,-0.0130338
 9,-0.00038844,-0.08156515,-0.31353557,-0.00223750,-0.00744466,-0.00412
 537,0.00014445,0.00190125,-0.00446131,0.00004039,-0.00029990,-0.000855
 12,0.00010757,-0.00065817,-0.00097678,-0.00005255,0.09786052,0.3451249
 7,0.00071082,0.00006823,0.02737563,-0.00052957,-0.00229883,-0.03596176
 ,-0.00038912,-0.00007664,-0.00127113,-0.00004738,0.00001545,-0.0098457
 2,-0.00017968,0.00011965,-0.00728685,0.00006840,-0.00008794,0.00334512
 ,-0.00020173,0.00283545,0.00285053,-0.23883158,0.12361973,0.00664005,-
 0.03172711,0.01018203,0.00129015,-0.00402395,-0.00023270,0.00029075,0.
 00074887,0.00482641,0.00060857,0.00009986,-0.00008270,0.00000573,-0.00
 028651,0.00030426,-0.00016682,0.00091912,-0.00028923,0.00013699,0.2780
 8425,0.12434813,-0.11064510,-0.00406472,-0.00307092,0.00517265,-0.0000
 6289,-0.00807400,-0.00260891,0.00004970,0.02757253,-0.02526512,-0.0013
 9610,0.00008307,0.00121397,0.00001159,0.00116064,-0.00085654,0.0000575
 0,0.00076790,-0.00016546,-0.00011172,-0.14196447,0.12891652,0.00668216
 ,-0.00406641,-0.04776999,0.00118119,-0.00035689,0.01391454,0.00001168,
 -0.00017746,0.00780227,0.00100950,-0.00094165,0.02207427,0.00001149,0.
 00001370,0.00043362,-0.00016434,0.00009652,-0.00724439,0.00015843,-0.0
 0010340,0.00650487,-0.00883351,0.00534027,0.01044145,-0.07315833,0.030
 99182,0.00283100,-0.10482517,0.10198843,0.00343893,-0.10457365,-0.1020
 4887,0.00026315,-0.07324481,-0.03092661,0.00182734,-0.00497429,0.00083
 067,-0.00000195,-0.00227839,0.00015098,0.00043389,-0.00227362,-0.00016
 371,0.00043128,-0.00498283,-0.00082272,-0.00005660,0.37031067,0.085682
 20,0.08143817,-0.00131887,-0.12913870,-0.09580274,0.00219108,0.1290178
 4,-0.09640927,-0.00430737,-0.08553637,0.08126400,0.00300132,-0.0036190
 5,0.00418405,0.00032709,-0.00446928,-0.00793741,-0.00022500,0.00442682
 ,-0.00797120,-0.00046366,0.00363652,0.00423776,0.00019532,0.00000001,0
 .03699629,0.00366699,0.00014300,0.01970114,-0.00005955,-0.00355461,-0.
 03103993,0.00376208,0.00154074,-0.03104917,0.00103604,0.00168117,0.019
 78004,-0.00008696,0.00013456,-0.00619991,0.00032670,-0.00037531,0.0142
 8379,0.00049372,-0.00034598,0.01428937,0.00002807,0.00017636,-0.006156
 59,-0.00916708,0.00060005,0.00639110\\-0.03923315,-0.04501953,0.000231
 10,0.03581314,0.00236896,-0.00086398,0.03555682,-0.00222147,-0.0009876
 8,-0.03895851,0.04487306,0.00175522,-0.00084476,0.00207572,0.00005825,
 -0.00059024,0.00011196,0.00001470,-0.00061223,0.00002792,0.00002917,-0
 .00089480,-0.00207296,-0.00001246,0.00976374,-0.00014367,-0.00022432\\
 \@


 STEINBACH'S GUIDELINES FOR SYSTEMS PROGRAMMING:
 NEVER TEST FOR AN ERROR CONDITION YOU DON'T KNOW HOW
 TO HANDLE.
 Job cpu time:       0 days  0 hours  0 minutes  0.4 seconds.
 File lengths (MBytes):  RWF=      6 Int=      0 D2E=      0 Chk=      3 Scr=      1
 Normal termination of Gaussian 09 at Fri Mar 25 08:56:41 2016.
